 Entering Gaussian System, Link 0=g16
 Input=sps_iso.com
 Output=sps_iso.log
 Initial command:
 /opt/apps/gaussian/16rA.03/g16/l1.exe "/tmp/Gau-16874.inp" -scrdir="/tmp/"
 Entering Link 1 = /opt/apps/gaussian/16rA.03/g16/l1.exe PID=     16875.
  
 Copyright (c) 1988,1990,1992,1993,1995,1998,2003,2009,2016,
            Gaussian, Inc.  All Rights Reserved.
  
 This is part of the Gaussian(R) 16 program.  It is based on
 the Gaussian(R) 09 system (copyright 2009, Gaussian, Inc.),
 the Gaussian(R) 03 system (copyright 2003, Gaussian, Inc.),
 the Gaussian(R) 98 system (copyright 1998, Gaussian, Inc.),
 the Gaussian(R) 94 system (copyright 1995, Gaussian, Inc.),
 the Gaussian 92(TM) system (copyright 1992, Gaussian, Inc.),
 the Gaussian 90(TM) system (copyright 1990, Gaussian, Inc.),
 the Gaussian 88(TM) system (copyright 1988, Gaussian, Inc.),
 the Gaussian 86(TM) system (copyright 1986, Carnegie Mellon
 University), and the Gaussian 82(TM) system (copyright 1983,
 Carnegie Mellon University). Gaussian is a federally registered
 trademark of Gaussian, Inc.
  
 This software contains proprietary and confidential information,
 including trade secrets, belonging to Gaussian, Inc.
  
 This software is provided under written license and may be
 used, copied, transmitted, or stored only in accord with that
 written license.
  
 The following legend is applicable only to US Government
 contracts under FAR:
  
                    RESTRICTED RIGHTS LEGEND
  
 Use, reproduction and disclosure by the US Government is
 subject to restrictions as set forth in subparagraphs (a)
 and (c) of the Commercial Computer Software - Restricted
 Rights clause in FAR 52.227-19.
  
 Gaussian, Inc.
 340 Quinnipiac St., Bldg. 40, Wallingford CT 06492
  
  
 ---------------------------------------------------------------
 Warning -- This program may not be used in any manner that
 competes with the business of Gaussian, Inc. or will provide
 assistance to any competitor of Gaussian, Inc.  The licensee
 of this program is prohibited from giving any competitor of
 Gaussian, Inc. access to this program.  By using this program,
 the user acknowledges that Gaussian, Inc. is engaged in the
 business of creating and licensing software in the field of
 computational chemistry and represents and warrants to the
 licensee that it is not a competitor of Gaussian, Inc. and that
 it will not use this program in any manner prohibited above.
 ---------------------------------------------------------------
  

 Cite this work as:
 Gaussian 16, Revision A.03,
 M. J. Frisch, G. W. Trucks, H. B. Schlegel, G. E. Scuseria, 
 M. A. Robb, J. R. Cheeseman, G. Scalmani, V. Barone, 
 G. A. Petersson, H. Nakatsuji, X. Li, M. Caricato, A. V. Marenich, 
 J. Bloino, B. G. Janesko, R. Gomperts, B. Mennucci, H. P. Hratchian, 
 J. V. Ortiz, A. F. Izmaylov, J. L. Sonnenberg, D. Williams-Young, 
 F. Ding, F. Lipparini, F. Egidi, J. Goings, B. Peng, A. Petrone, 
 T. Henderson, D. Ranasinghe, V. G. Zakrzewski, J. Gao, N. Rega, 
 G. Zheng, W. Liang, M. Hada, M. Ehara, K. Toyota, R. Fukuda, 
 J. Hasegawa, M. Ishida, T. Nakajima, Y. Honda, O. Kitao, H. Nakai, 
 T. Vreven, K. Throssell, J. A. Montgomery, Jr., J. E. Peralta, 
 F. Ogliaro, M. J. Bearpark, J. J. Heyd, E. N. Brothers, K. N. Kudin, 
 V. N. Staroverov, T. A. Keith, R. Kobayashi, J. Normand, 
 K. Raghavachari, A. P. Rendell, J. C. Burant, S. S. Iyengar, 
 J. Tomasi, M. Cossi, J. M. Millam, M. Klene, C. Adamo, R. Cammi, 
 J. W. Ochterski, R. L. Martin, K. Morokuma, O. Farkas, 
 J. B. Foresman, and D. J. Fox, Gaussian, Inc., Wallingford CT, 2016.
 
 ******************************************
 Gaussian 16:  ES64L-G16RevA.03 25-Dec-2016
                 4-Feb-2021 
 ******************************************
 %NProcShared=24
 Will use up to   24 processors via shared memory.
 %mem=48GB
 %Chk=sps_iso.chk
 -------------------------------------------
 #n B3LYP/6-31G(d) Opt geom=check guess=read
 -------------------------------------------
 1/18=20,19=15,26=3,29=2,38=1/1,3;
 2/9=110,12=2,40=1/2;
 3/5=1,6=6,7=1,11=2,14=-4,25=1,30=1,71=1,74=-5,116=-2/1,2,3;
 4/5=1/1;
 5/5=2,38=6/2;
 6/7=2,8=2,9=2,10=2,28=1/1;
 7//1,2,3,16;
 1/18=20,19=15,26=3/3(2);
 2/9=110/2;
 99//99;
 2/9=110/2;
 3/5=1,6=6,7=1,11=2,14=-2,25=1,30=1,71=1,74=-5/1,2,3;
 4/5=5,16=3,69=1/1;
 5/5=2,38=5/2;
 7//1,2,3,16;
 1/18=20,19=15,26=3/3(-5);
 2/9=110/2;
 6/7=2,8=2,9=2,10=2,19=2,28=1/1;
 99/9=1/99;
 -------
 sps_iso
 -------
 Structure from the checkpoint file:  "sps_iso.chk"
 Charge = -3 Multiplicity = 1
 Redundant internal coordinates found in file.  (old form).
 C,0,-1.224294159,-3.9453734308,2.4946984394
 C,0,0.1719604814,-3.6943998733,1.8932793711
 H,0,-1.7604144484,-3.0074860019,2.6858396228
 H,0,-1.1570466776,-4.4948068558,3.4384973004
 C,0,0.0669882037,-3.1754513951,0.4585271988
 H,0,0.6846301391,-4.6637248638,1.8510035702
 C,0,0.6781651638,-3.8615828751,-0.6004448989
 C,0,0.5880132555,-3.4007299197,-1.9165348623
 H,0,1.2366908273,-4.772209502,-0.3876996367
 C,0,-0.1207641447,-2.2345383315,-2.2103270298
 H,0,1.0783312546,-3.9304932566,-2.7277775823
 C,0,-0.7259617243,-1.5325594121,-1.1643389841
 C,0,-0.6325986892,-1.9975643697,0.1480043211
 H,0,-1.2538133103,-0.6115448468,-1.3933156727
 H,0,-1.1119803621,-1.4310471895,0.9449347341
 S,0,-0.3077932712,-1.6671784663,-3.9338992815
 O,0,-1.557592482,-2.3241973529,-4.4095522284
 O,0,0.925979995,-2.1495478935,-4.6158542029
 O,0,-0.4106559164,-0.1847306419,-3.8215002953
 H,0,-1.8332856932,-4.5396890521,1.8037570181
 C,0,1.0653772313,-2.7431833722,2.7319570509
 C,0,1.4669933694,-3.1278383467,4.1937671166
 H,0,1.9981073169,-2.6247451294,2.1655566221
 H,0,0.6057876638,-1.745765388,2.7458108323
 C,0,2.0164225366,-4.5522681994,4.302334452
 H,0,2.325876072,-2.4713040586,4.4074656837
 C,0,1.3011871647,-5.6195188775,4.8647199663
 C,0,1.866935654,-6.8934750841,4.9794795694
 H,0,0.2962174686,-5.4551187801,5.2457354118
 C,0,3.1653384302,-7.138493813,4.5320162173
 H,0,1.3163986788,-7.7047544823,5.4460934839
 C,0,3.8891904946,-6.0870987595,3.962503436
 C,0,3.3211483692,-4.8189426426,3.8527893321
 H,0,4.9099879381,-6.2712651899,3.6412938778
 H,0,3.9088408649,-4.0059937596,3.4263407919
 S,0,3.9028597493,-8.8024555028,4.663282538
 O,0,3.5728184509,-9.4644572139,3.3713313464
 O,0,3.2283044242,-9.4081067126,5.845426057
 O,0,5.3572258672,-8.5369860471,4.8528619162
 C,0,0.4273039699,-2.7709345447,5.2881480464
 C,0,0.2048536389,-1.2502428209,5.4558199403
 H,0,-0.5399868844,-3.2515607008,5.1066254599
 H,0,0.7902730183,-3.1715141273,6.2433401367
 C,0,-0.6385066961,-0.8600329077,6.6565627145
 H,0,1.1897307391,-0.7671014863,5.5399088976
 C,0,-2.002039213,-0.5613184493,6.5267690501
 C,0,-2.7674337727,-0.1692145898,7.6274505043
 H,0,-2.4684690165,-0.6291226822,5.5443224081
 C,0,-2.1843872757,-0.0630385497,8.8917771438
 H,0,-3.8249081037,0.0539517904,7.5222477614
 C,0,-0.8314963931,-0.3799981515,9.0409665483
 C,0,-0.0723467895,-0.7711346845,7.9376838589
 H,0,-0.3899691441,-0.3205192565,10.0312709198
 H,0,0.9839930867,-1.0055204607,8.0680925316
 S,0,-3.1482921159,0.5616814838,10.3090063795
 O,0,-4.5466601951,0.1393101533,10.0175120617
 O,0,-2.5341109636,-0.1035348556,11.4920067825
 O,0,-2.9419670598,2.0369795191,10.2716729768
 H,0,-0.2581570163,-0.8425077897,4.5487532751
 Recover connectivity data from disk.

 GradGradGradGradGradGradGradGradGradGradGradGradGradGradGradGradGradGrad
 Berny optimization.
 Initialization pass.
                           ----------------------------
                           !    Initial Parameters    !
                           ! (Angstroms and Degrees)  !
 --------------------------                            --------------------------
 ! Name  Definition              Value          Derivative Info.                !
 --------------------------------------------------------------------------------
 ! R1    R(1,2)                  1.5409         estimate D2E/DX2                !
 ! R2    R(1,3)                  1.0971         estimate D2E/DX2                !
 ! R3    R(1,4)                  1.0941         estimate D2E/DX2                !
 ! R4    R(1,20)                 1.0961         estimate D2E/DX2                !
 ! R5    R(2,5)                  1.5293         estimate D2E/DX2                !
 ! R6    R(2,6)                  1.0974         estimate D2E/DX2                !
 ! R7    R(2,21)                 1.5513         estimate D2E/DX2                !
 ! R8    R(5,7)                  1.402          estimate D2E/DX2                !
 ! R9    R(5,13)                 1.4047         estimate D2E/DX2                !
 ! R10   R(7,8)                  1.3974         estimate D2E/DX2                !
 ! R11   R(7,9)                  1.0892         estimate D2E/DX2                !
 ! R12   R(8,10)                 1.396          estimate D2E/DX2                !
 ! R13   R(8,11)                 1.0859         estimate D2E/DX2                !
 ! R14   R(10,12)                1.3975         estimate D2E/DX2                !
 ! R15   R(10,16)                1.8242         estimate D2E/DX2                !
 ! R16   R(12,13)                1.3954         estimate D2E/DX2                !
 ! R17   R(12,14)                1.086          estimate D2E/DX2                !
 ! R18   R(13,15)                1.089          estimate D2E/DX2                !
 ! R19   R(16,17)                1.4899         estimate D2E/DX2                !
 ! R20   R(16,18)                1.4899         estimate D2E/DX2                !
 ! R21   R(16,19)                1.4903         estimate D2E/DX2                !
 ! R22   R(21,22)                1.564          estimate D2E/DX2                !
 ! R23   R(21,23)                1.0976         estimate D2E/DX2                !
 ! R24   R(21,24)                1.0983         estimate D2E/DX2                !
 ! R25   R(22,25)                1.5306         estimate D2E/DX2                !
 ! R26   R(22,26)                1.102          estimate D2E/DX2                !
 ! R27   R(22,40)                1.5511         estimate D2E/DX2                !
 ! R28   R(25,27)                1.4024         estimate D2E/DX2                !
 ! R29   R(25,33)                1.4055         estimate D2E/DX2                !
 ! R30   R(27,28)                1.3986         estimate D2E/DX2                !
 ! R31   R(27,29)                1.0873         estimate D2E/DX2                !
 ! R32   R(28,30)                1.395          estimate D2E/DX2                !
 ! R33   R(28,31)                1.0858         estimate D2E/DX2                !
 ! R34   R(30,32)                1.3978         estimate D2E/DX2                !
 ! R35   R(30,36)                1.8248         estimate D2E/DX2                !
 ! R36   R(32,33)                1.3939         estimate D2E/DX2                !
 ! R37   R(32,34)                1.0859         estimate D2E/DX2                !
 ! R38   R(33,35)                1.09           estimate D2E/DX2                !
 ! R39   R(36,37)                1.4887         estimate D2E/DX2                !
 ! R40   R(36,38)                1.4897         estimate D2E/DX2                !
 ! R41   R(36,39)                1.4905         estimate D2E/DX2                !
 ! R42   R(40,41)                1.546          estimate D2E/DX2                !
 ! R43   R(40,42)                1.0953         estimate D2E/DX2                !
 ! R44   R(40,43)                1.0975         estimate D2E/DX2                !
 ! R45   R(41,44)                1.5183         estimate D2E/DX2                !
 ! R46   R(41,45)                1.1002         estimate D2E/DX2                !
 ! R47   R(41,59)                1.097          estimate D2E/DX2                !
 ! R48   R(44,46)                1.4019         estimate D2E/DX2                !
 ! R49   R(44,52)                1.4035         estimate D2E/DX2                !
 ! R50   R(46,47)                1.3968         estimate D2E/DX2                !
 ! R51   R(46,48)                1.0897         estimate D2E/DX2                !
 ! R52   R(47,49)                1.3963         estimate D2E/DX2                !
 ! R53   R(47,50)                1.0859         estimate D2E/DX2                !
 ! R54   R(49,51)                1.3975         estimate D2E/DX2                !
 ! R55   R(49,55)                1.8243         estimate D2E/DX2                !
 ! R56   R(51,52)                1.3952         estimate D2E/DX2                !
 ! R57   R(51,53)                1.0859         estimate D2E/DX2                !
 ! R58   R(52,54)                1.0899         estimate D2E/DX2                !
 ! R59   R(55,56)                1.4896         estimate D2E/DX2                !
 ! R60   R(55,57)                1.4897         estimate D2E/DX2                !
 ! R61   R(55,58)                1.4901         estimate D2E/DX2                !
 ! A1    A(2,1,3)              111.813          estimate D2E/DX2                !
 ! A2    A(2,1,4)              111.2711         estimate D2E/DX2                !
 ! A3    A(2,1,20)             110.2262         estimate D2E/DX2                !
 ! A4    A(3,1,4)              108.0013         estimate D2E/DX2                !
 ! A5    A(3,1,20)             107.5683         estimate D2E/DX2                !
 ! A6    A(4,1,20)             107.795          estimate D2E/DX2                !
 ! A7    A(1,2,5)              111.0542         estimate D2E/DX2                !
 ! A8    A(1,2,6)              107.1278         estimate D2E/DX2                !
 ! A9    A(1,2,21)             114.2513         estimate D2E/DX2                !
 ! A10   A(5,2,6)              107.1973         estimate D2E/DX2                !
 ! A11   A(5,2,21)             109.7957         estimate D2E/DX2                !
 ! A12   A(6,2,21)             107.0621         estimate D2E/DX2                !
 ! A13   A(2,5,7)              120.838          estimate D2E/DX2                !
 ! A14   A(2,5,13)             121.7426         estimate D2E/DX2                !
 ! A15   A(7,5,13)             117.4183         estimate D2E/DX2                !
 ! A16   A(5,7,8)              121.4568         estimate D2E/DX2                !
 ! A17   A(5,7,9)              119.021          estimate D2E/DX2                !
 ! A18   A(8,7,9)              119.522          estimate D2E/DX2                !
 ! A19   A(7,8,10)             120.4309         estimate D2E/DX2                !
 ! A20   A(7,8,11)             120.9036         estimate D2E/DX2                !
 ! A21   A(10,8,11)            118.6587         estimate D2E/DX2                !
 ! A22   A(8,10,12)            118.8145         estimate D2E/DX2                !
 ! A23   A(8,10,16)            120.7134         estimate D2E/DX2                !
 ! A24   A(12,10,16)           120.4342         estimate D2E/DX2                !
 ! A25   A(10,12,13)           120.4996         estimate D2E/DX2                !
 ! A26   A(10,12,14)           118.599          estimate D2E/DX2                !
 ! A27   A(13,12,14)           120.8932         estimate D2E/DX2                !
 ! A28   A(5,13,12)            121.3752         estimate D2E/DX2                !
 ! A29   A(5,13,15)            119.5833         estimate D2E/DX2                !
 ! A30   A(12,13,15)           119.0413         estimate D2E/DX2                !
 ! A31   A(10,16,17)           104.5065         estimate D2E/DX2                !
 ! A32   A(10,16,18)           104.2924         estimate D2E/DX2                !
 ! A33   A(10,16,19)           104.1941         estimate D2E/DX2                !
 ! A34   A(17,16,18)           113.9362         estimate D2E/DX2                !
 ! A35   A(17,16,19)           113.881          estimate D2E/DX2                !
 ! A36   A(18,16,19)           114.4394         estimate D2E/DX2                !
 ! A37   A(2,21,22)            120.1587         estimate D2E/DX2                !
 ! A38   A(2,21,23)            106.0566         estimate D2E/DX2                !
 ! A39   A(2,21,24)            108.8255         estimate D2E/DX2                !
 ! A40   A(22,21,23)           106.8955         estimate D2E/DX2                !
 ! A41   A(22,21,24)           108.6034         estimate D2E/DX2                !
 ! A42   A(23,21,24)           105.3137         estimate D2E/DX2                !
 ! A43   A(21,22,25)           112.7903         estimate D2E/DX2                !
 ! A44   A(21,22,26)           103.5834         estimate D2E/DX2                !
 ! A45   A(21,22,40)           115.5136         estimate D2E/DX2                !
 ! A46   A(25,22,26)           105.1248         estimate D2E/DX2                !
 ! A47   A(25,22,40)           113.8723         estimate D2E/DX2                !
 ! A48   A(26,22,40)           104.3893         estimate D2E/DX2                !
 ! A49   A(22,25,27)           123.6136         estimate D2E/DX2                !
 ! A50   A(22,25,33)           119.1509         estimate D2E/DX2                !
 ! A51   A(27,25,33)           117.2121         estimate D2E/DX2                !
 ! A52   A(25,27,28)           121.3163         estimate D2E/DX2                !
 ! A53   A(25,27,29)           119.7915         estimate D2E/DX2                !
 ! A54   A(28,27,29)           118.8717         estimate D2E/DX2                !
 ! A55   A(27,28,30)           120.6732         estimate D2E/DX2                !
 ! A56   A(27,28,31)           120.7119         estimate D2E/DX2                !
 ! A57   A(30,28,31)           118.5887         estimate D2E/DX2                !
 ! A58   A(28,30,32)           118.7228         estimate D2E/DX2                !
 ! A59   A(28,30,36)           120.8806         estimate D2E/DX2                !
 ! A60   A(32,30,36)           120.3913         estimate D2E/DX2                !
 ! A61   A(30,32,33)           120.3563         estimate D2E/DX2                !
 ! A62   A(30,32,34)           118.6711         estimate D2E/DX2                !
 ! A63   A(33,32,34)           120.9387         estimate D2E/DX2                !
 ! A64   A(25,33,32)           121.718          estimate D2E/DX2                !
 ! A65   A(25,33,35)           118.9548         estimate D2E/DX2                !
 ! A66   A(32,33,35)           119.3153         estimate D2E/DX2                !
 ! A67   A(30,36,37)           104.682          estimate D2E/DX2                !
 ! A68   A(30,36,38)           104.1694         estimate D2E/DX2                !
 ! A69   A(30,36,39)           103.9518         estimate D2E/DX2                !
 ! A70   A(37,36,38)           114.0463         estimate D2E/DX2                !
 ! A71   A(37,36,39)           113.9475         estimate D2E/DX2                !
 ! A72   A(38,36,39)           114.4126         estimate D2E/DX2                !
 ! A73   A(22,40,41)           113.5339         estimate D2E/DX2                !
 ! A74   A(22,40,42)           111.9662         estimate D2E/DX2                !
 ! A75   A(22,40,43)           107.9618         estimate D2E/DX2                !
 ! A76   A(41,40,42)           108.8165         estimate D2E/DX2                !
 ! A77   A(41,40,43)           108.1919         estimate D2E/DX2                !
 ! A78   A(42,40,43)           106.0304         estimate D2E/DX2                !
 ! A79   A(40,41,44)           114.7392         estimate D2E/DX2                !
 ! A80   A(40,41,45)           108.1455         estimate D2E/DX2                !
 ! A81   A(40,41,59)           109.6731         estimate D2E/DX2                !
 ! A82   A(44,41,45)           108.9004         estimate D2E/DX2                !
 ! A83   A(44,41,59)           108.9019         estimate D2E/DX2                !
 ! A84   A(45,41,59)           106.1291         estimate D2E/DX2                !
 ! A85   A(41,44,46)           121.453          estimate D2E/DX2                !
 ! A86   A(41,44,52)           120.9376         estimate D2E/DX2                !
 ! A87   A(46,44,52)           117.6055         estimate D2E/DX2                !
 ! A88   A(44,46,47)           121.3205         estimate D2E/DX2                !
 ! A89   A(44,46,48)           119.1144         estimate D2E/DX2                !
 ! A90   A(47,46,48)           119.5629         estimate D2E/DX2                !
 ! A91   A(46,47,49)           120.4007         estimate D2E/DX2                !
 ! A92   A(46,47,50)           120.9959         estimate D2E/DX2                !
 ! A93   A(49,47,50)           118.6026         estimate D2E/DX2                !
 ! A94   A(47,49,51)           118.9234         estimate D2E/DX2                !
 ! A95   A(47,49,55)           120.587          estimate D2E/DX2                !
 ! A96   A(51,49,55)           120.4141         estimate D2E/DX2                !
 ! A97   A(49,51,52)           120.3921         estimate D2E/DX2                !
 ! A98   A(49,51,53)           118.5907         estimate D2E/DX2                !
 ! A99   A(52,51,53)           121.0161         estimate D2E/DX2                !
 ! A100  A(44,52,51)           121.3393         estimate D2E/DX2                !
 ! A101  A(44,52,54)           119.1172         estimate D2E/DX2                !
 ! A102  A(51,52,54)           119.5417         estimate D2E/DX2                !
 ! A103  A(49,55,56)           104.2942         estimate D2E/DX2                !
 ! A104  A(49,55,57)           104.251          estimate D2E/DX2                !
 ! A105  A(49,55,58)           104.2657         estimate D2E/DX2                !
 ! A106  A(56,55,57)           114.5713         estimate D2E/DX2                !
 ! A107  A(56,55,58)           113.9422         estimate D2E/DX2                !
 ! A108  A(57,55,58)           113.8855         estimate D2E/DX2                !
 ! D1    D(3,1,2,5)            -70.1873         estimate D2E/DX2                !
 ! D2    D(3,1,2,6)            173.0597         estimate D2E/DX2                !
 ! D3    D(3,1,2,21)            54.6632         estimate D2E/DX2                !
 ! D4    D(4,1,2,5)            168.9476         estimate D2E/DX2                !
 ! D5    D(4,1,2,6)             52.1946         estimate D2E/DX2                !
 ! D6    D(4,1,2,21)           -66.2019         estimate D2E/DX2                !
 ! D7    D(20,1,2,5)            49.4134         estimate D2E/DX2                !
 ! D8    D(20,1,2,6)           -67.3397         estimate D2E/DX2                !
 ! D9    D(20,1,2,21)          174.2638         estimate D2E/DX2                !
 ! D10   D(1,2,5,7)           -122.112          estimate D2E/DX2                !
 ! D11   D(1,2,5,13)            58.2667         estimate D2E/DX2                !
 ! D12   D(6,2,5,7)             -5.4016         estimate D2E/DX2                !
 ! D13   D(6,2,5,13)           174.9771         estimate D2E/DX2                !
 ! D14   D(21,2,5,7)           110.564          estimate D2E/DX2                !
 ! D15   D(21,2,5,13)          -69.0574         estimate D2E/DX2                !
 ! D16   D(1,2,21,22)           61.3035         estimate D2E/DX2                !
 ! D17   D(1,2,21,23)         -177.565          estimate D2E/DX2                !
 ! D18   D(1,2,21,24)          -64.705          estimate D2E/DX2                !
 ! D19   D(5,2,21,22)         -173.1813         estimate D2E/DX2                !
 ! D20   D(5,2,21,23)          -52.0498         estimate D2E/DX2                !
 ! D21   D(5,2,21,24)           60.8102         estimate D2E/DX2                !
 ! D22   D(6,2,21,22)          -57.1304         estimate D2E/DX2                !
 ! D23   D(6,2,21,23)           64.0012         estimate D2E/DX2                !
 ! D24   D(6,2,21,24)          176.8612         estimate D2E/DX2                !
 ! D25   D(2,5,7,8)            179.8544         estimate D2E/DX2                !
 ! D26   D(2,5,7,9)             -0.2998         estimate D2E/DX2                !
 ! D27   D(13,5,7,8)            -0.5084         estimate D2E/DX2                !
 ! D28   D(13,5,7,9)           179.3374         estimate D2E/DX2                !
 ! D29   D(2,5,13,12)         -179.8596         estimate D2E/DX2                !
 ! D30   D(2,5,13,15)            0.267          estimate D2E/DX2                !
 ! D31   D(7,5,13,12)            0.5067         estimate D2E/DX2                !
 ! D32   D(7,5,13,15)         -179.3668         estimate D2E/DX2                !
 ! D33   D(5,7,8,10)            -0.0324         estimate D2E/DX2                !
 ! D34   D(5,7,8,11)           179.0051         estimate D2E/DX2                !
 ! D35   D(9,7,8,10)          -179.8775         estimate D2E/DX2                !
 ! D36   D(9,7,8,11)            -0.84           estimate D2E/DX2                !
 ! D37   D(7,8,10,12)            0.5841         estimate D2E/DX2                !
 ! D38   D(7,8,10,16)         -177.1902         estimate D2E/DX2                !
 ! D39   D(11,8,10,12)        -178.4748         estimate D2E/DX2                !
 ! D40   D(11,8,10,16)           3.7509         estimate D2E/DX2                !
 ! D41   D(8,10,12,13)          -0.5858         estimate D2E/DX2                !
 ! D42   D(8,10,12,14)         178.3775         estimate D2E/DX2                !
 ! D43   D(16,10,12,13)        177.1949         estimate D2E/DX2                !
 ! D44   D(16,10,12,14)         -3.8418         estimate D2E/DX2                !
 ! D45   D(8,10,16,17)          89.7773         estimate D2E/DX2                !
 ! D46   D(8,10,16,18)         -30.1157         estimate D2E/DX2                !
 ! D47   D(8,10,16,19)        -150.4354         estimate D2E/DX2                !
 ! D48   D(12,10,16,17)        -87.961          estimate D2E/DX2                !
 ! D49   D(12,10,16,18)        152.1461         estimate D2E/DX2                !
 ! D50   D(12,10,16,19)         31.8264         estimate D2E/DX2                !
 ! D51   D(10,12,13,5)           0.0357         estimate D2E/DX2                !
 ! D52   D(10,12,13,15)        179.9098         estimate D2E/DX2                !
 ! D53   D(14,12,13,5)        -178.9036         estimate D2E/DX2                !
 ! D54   D(14,12,13,15)          0.9705         estimate D2E/DX2                !
 ! D55   D(2,21,22,25)          49.2644         estimate D2E/DX2                !
 ! D56   D(2,21,22,26)         162.3858         estimate D2E/DX2                !
 ! D57   D(2,21,22,40)         -84.1234         estimate D2E/DX2                !
 ! D58   D(23,21,22,25)        -71.453          estimate D2E/DX2                !
 ! D59   D(23,21,22,26)         41.6684         estimate D2E/DX2                !
 ! D60   D(23,21,22,40)        155.1592         estimate D2E/DX2                !
 ! D61   D(24,21,22,25)        175.3762         estimate D2E/DX2                !
 ! D62   D(24,21,22,26)        -71.5024         estimate D2E/DX2                !
 ! D63   D(24,21,22,40)         41.9884         estimate D2E/DX2                !
 ! D64   D(21,22,25,27)       -106.3834         estimate D2E/DX2                !
 ! D65   D(21,22,25,33)         75.4265         estimate D2E/DX2                !
 ! D66   D(26,22,25,27)        141.4406         estimate D2E/DX2                !
 ! D67   D(26,22,25,33)        -36.7495         estimate D2E/DX2                !
 ! D68   D(40,22,25,27)         27.792          estimate D2E/DX2                !
 ! D69   D(40,22,25,33)       -150.3982         estimate D2E/DX2                !
 ! D70   D(21,22,40,41)        -65.0154         estimate D2E/DX2                !
 ! D71   D(21,22,40,42)         58.6953         estimate D2E/DX2                !
 ! D72   D(21,22,40,43)        175.0403         estimate D2E/DX2                !
 ! D73   D(25,22,40,41)        162.0948         estimate D2E/DX2                !
 ! D74   D(25,22,40,42)        -74.1945         estimate D2E/DX2                !
 ! D75   D(25,22,40,43)         42.1505         estimate D2E/DX2                !
 ! D76   D(26,22,40,41)         48.0083         estimate D2E/DX2                !
 ! D77   D(26,22,40,42)        171.719          estimate D2E/DX2                !
 ! D78   D(26,22,40,43)        -71.936          estimate D2E/DX2                !
 ! D79   D(22,25,27,28)       -177.8723         estimate D2E/DX2                !
 ! D80   D(22,25,27,29)          0.457          estimate D2E/DX2                !
 ! D81   D(33,25,27,28)          0.3503         estimate D2E/DX2                !
 ! D82   D(33,25,27,29)        178.6796         estimate D2E/DX2                !
 ! D83   D(22,25,33,32)        178.0666         estimate D2E/DX2                !
 ! D84   D(22,25,33,35)         -0.6644         estimate D2E/DX2                !
 ! D85   D(27,25,33,32)         -0.2386         estimate D2E/DX2                !
 ! D86   D(27,25,33,35)       -178.9696         estimate D2E/DX2                !
 ! D87   D(25,27,28,30)         -0.1351         estimate D2E/DX2                !
 ! D88   D(25,27,28,31)        177.9783         estimate D2E/DX2                !
 ! D89   D(29,27,28,30)       -178.4794         estimate D2E/DX2                !
 ! D90   D(29,27,28,31)         -0.366          estimate D2E/DX2                !
 ! D91   D(27,28,30,32)         -0.2028         estimate D2E/DX2                !
 ! D92   D(27,28,30,36)       -179.3661         estimate D2E/DX2                !
 ! D93   D(31,28,30,32)       -178.3556         estimate D2E/DX2                !
 ! D94   D(31,28,30,36)          2.4811         estimate D2E/DX2                !
 ! D95   D(28,30,32,33)          0.3135         estimate D2E/DX2                !
 ! D96   D(28,30,32,34)        178.2169         estimate D2E/DX2                !
 ! D97   D(36,30,32,33)        179.481          estimate D2E/DX2                !
 ! D98   D(36,30,32,34)         -2.6156         estimate D2E/DX2                !
 ! D99   D(28,30,36,37)         91.383          estimate D2E/DX2                !
 ! D100  D(28,30,36,38)        -28.6564         estimate D2E/DX2                !
 ! D101  D(28,30,36,39)       -148.7858         estimate D2E/DX2                !
 ! D102  D(32,30,36,37)        -87.7663         estimate D2E/DX2                !
 ! D103  D(32,30,36,38)        152.1943         estimate D2E/DX2                !
 ! D104  D(32,30,36,39)         32.0649         estimate D2E/DX2                !
 ! D105  D(30,32,33,25)         -0.0916         estimate D2E/DX2                !
 ! D106  D(30,32,33,35)        178.635          estimate D2E/DX2                !
 ! D107  D(34,32,33,25)       -177.9468         estimate D2E/DX2                !
 ! D108  D(34,32,33,35)          0.7798         estimate D2E/DX2                !
 ! D109  D(22,40,41,44)       -170.9478         estimate D2E/DX2                !
 ! D110  D(22,40,41,45)        -49.1898         estimate D2E/DX2                !
 ! D111  D(22,40,41,59)         66.1277         estimate D2E/DX2                !
 ! D112  D(42,40,41,44)         63.6415         estimate D2E/DX2                !
 ! D113  D(42,40,41,45)       -174.6005         estimate D2E/DX2                !
 ! D114  D(42,40,41,59)        -59.283          estimate D2E/DX2                !
 ! D115  D(43,40,41,44)        -51.1342         estimate D2E/DX2                !
 ! D116  D(43,40,41,45)         70.6238         estimate D2E/DX2                !
 ! D117  D(43,40,41,59)       -174.0587         estimate D2E/DX2                !
 ! D118  D(40,41,44,46)        -98.995          estimate D2E/DX2                !
 ! D119  D(40,41,44,52)         81.7424         estimate D2E/DX2                !
 ! D120  D(45,41,44,46)        139.6589         estimate D2E/DX2                !
 ! D121  D(45,41,44,52)        -39.6037         estimate D2E/DX2                !
 ! D122  D(59,41,44,46)         24.343          estimate D2E/DX2                !
 ! D123  D(59,41,44,52)       -154.9196         estimate D2E/DX2                !
 ! D124  D(41,44,46,47)       -178.3271         estimate D2E/DX2                !
 ! D125  D(41,44,46,48)          1.1315         estimate D2E/DX2                !
 ! D126  D(52,44,46,47)          0.9592         estimate D2E/DX2                !
 ! D127  D(52,44,46,48)       -179.5823         estimate D2E/DX2                !
 ! D128  D(41,44,52,51)        178.3272         estimate D2E/DX2                !
 ! D129  D(41,44,52,54)         -1.1805         estimate D2E/DX2                !
 ! D130  D(46,44,52,51)         -0.9629         estimate D2E/DX2                !
 ! D131  D(46,44,52,54)        179.5293         estimate D2E/DX2                !
 ! D132  D(44,46,47,49)          0.1243         estimate D2E/DX2                !
 ! D133  D(44,46,47,50)       -179.5507         estimate D2E/DX2                !
 ! D134  D(48,46,47,49)       -179.3319         estimate D2E/DX2                !
 ! D135  D(48,46,47,50)          0.9931         estimate D2E/DX2                !
 ! D136  D(46,47,49,51)         -1.2191         estimate D2E/DX2                !
 ! D137  D(46,47,49,55)        175.6347         estimate D2E/DX2                !
 ! D138  D(50,47,49,51)        178.4637         estimate D2E/DX2                !
 ! D139  D(50,47,49,55)         -4.6825         estimate D2E/DX2                !
 ! D140  D(47,49,51,52)          1.2155         estimate D2E/DX2                !
 ! D141  D(47,49,51,53)       -178.4248         estimate D2E/DX2                !
 ! D142  D(55,49,51,52)       -175.644          estimate D2E/DX2                !
 ! D143  D(55,49,51,53)          4.7157         estimate D2E/DX2                !
 ! D144  D(47,49,55,56)         30.8228         estimate D2E/DX2                !
 ! D145  D(47,49,55,57)        151.3168         estimate D2E/DX2                !
 ! D146  D(47,49,55,58)        -88.9714         estimate D2E/DX2                !
 ! D147  D(51,49,55,56)       -152.3704         estimate D2E/DX2                !
 ! D148  D(51,49,55,57)        -31.8764         estimate D2E/DX2                !
 ! D149  D(51,49,55,58)         87.8354         estimate D2E/DX2                !
 ! D150  D(49,51,52,44)         -0.1171         estimate D2E/DX2                !
 ! D151  D(49,51,52,54)        179.3886         estimate D2E/DX2                !
 ! D152  D(53,51,52,44)        179.5144         estimate D2E/DX2                !
 ! D153  D(53,51,52,54)         -0.9799         estimate D2E/DX2                !
 --------------------------------------------------------------------------------
 Trust Radius=3.00D-01 FncErr=1.00D-07 GrdErr=1.00D-06 EigMax=2.50D+02 EigMin=1.00D-04
 Number of steps in this run=    332 maximum allowed number of steps=    354.
 GradGradGradGradGradGradGradGradGradGradGradGradGradGradGradGradGradGrad

 Stoichiometry    C24H23O9S3(3-)
 Framework group  C1[X(C24H23O9S3)]
 Deg. of freedom   171
 Full point group                 C1      NOp   1
 Largest Abelian subgroup         C1      NOp   1
 Largest concise Abelian subgroup C1      NOp   1
                         Standard orientation:                         
 ---------------------------------------------------------------------
 Center     Atomic      Atomic             Coordinates (Angstroms)
 Number     Number       Type             X           Y           Z
 ---------------------------------------------------------------------
      1          6           0        0.979696    0.624064   -1.744591
      2          6           0        1.820876    0.313933   -0.491413
      3          1           0        0.395207    1.544831   -1.625623
      4          1           0        0.284821   -0.191056   -1.967940
      5          6           0        2.967706    1.314005   -0.338184
      6          1           0        2.271089   -0.675563   -0.641125
      7          6           0        4.299390    0.878290   -0.288129
      8          6           0        5.357324    1.780893   -0.151420
      9          1           0        4.509228   -0.188448   -0.355149
     10          6           0        5.109950    3.151791   -0.061261
     11          1           0        6.384359    1.432368   -0.097526
     12          6           0        3.787209    3.601404   -0.097813
     13          6           0        2.734754    2.695397   -0.234497
     14          1           0        3.597231    4.666192   -0.000559
     15          1           0        1.713134    3.071629   -0.258755
     16         16           0        6.488146    4.342485    0.040720
     17          8           0        6.795173    4.680354   -1.377552
     18          8           0        7.573302    3.590785    0.731606
     19          8           0        5.930612    5.480484    0.824926
     20          1           0        1.631892    0.756393   -2.615573
     21          6           0        1.002591    0.247248    0.824774
     22          6           0       -0.131691   -0.816548    0.991773
     23          1           0        1.730573    0.065816    1.625989
     24          1           0        0.584135    1.241194    1.032677
     25          6           0        0.320046   -2.229232    0.613730
     26          1           0       -0.297400   -0.849422    2.080737
     27          6           0       -0.074781   -2.881692   -0.563245
     28          6           0        0.332052   -4.190888   -0.840190
     29          1           0       -0.731875   -2.376213   -1.266725
     30          6           0        1.149084   -4.885947    0.051694
     31          1           0       -0.005915   -4.698279   -1.738704
     32          6           0        1.557271   -4.247325    1.226123
     33          6           0        1.146867   -2.943273    1.498054
     34          1           0        2.168965   -4.799073    1.933600
     35          1           0        1.456851   -2.469493    2.429488
     36         16           0        1.697279   -6.588045   -0.312015
     37          8           0        2.995048   -6.422780   -1.022503
     38          8           0        0.608145   -7.148613   -1.159866
     39          8           0        1.819588   -7.221085    1.031821
     40          6           0       -1.511225   -0.420192    0.403732
     41          6           0       -2.161499    0.788351    1.115538
     42          1           0       -1.453770   -0.209095   -0.669460
     43          1           0       -2.183536   -1.281472    0.507642
     44          6           0       -3.598296    1.066337    0.711010
     45          1           0       -2.125286    0.607332    2.200158
     46          6           0       -3.915079    2.057830   -0.228079
     47          6           0       -5.240089    2.334789   -0.572629
     48          1           0       -3.109167    2.627637   -0.689795
     49          6           0       -6.287107    1.624899    0.018597
     50          1           0       -5.479126    3.099013   -1.306077
     51          6           0       -5.985689    0.617668    0.939286
     52          6           0       -4.660163    0.345715    1.279212
     53          1           0       -6.802847    0.051566    1.376284
     54          1           0       -4.441432   -0.436115    2.006327
     55         16           0       -8.022183    2.061314   -0.337744
     56          8           0       -7.990857    2.584806   -1.731937
     57          8           0       -8.763773    0.779761   -0.173773
     58          8           0       -8.360091    3.089294    0.686728
     59          1           0       -1.561349    1.689034    0.936690
 ---------------------------------------------------------------------
 Rotational constants (GHZ):           0.0642770           0.0383042           0.0249527
 Standard basis: 6-31G(d) (6D, 7F)
 There are   598 symmetry adapted cartesian basis functions of A   symmetry.
 There are   598 symmetry adapted basis functions of A   symmetry.
   598 basis functions,  1172 primitive gaussians,   598 cartesian basis functions
   145 alpha electrons      145 beta electrons
       nuclear repulsion energy      4092.3087714459 Hartrees.
 NAtoms=   59 NActive=   59 NUniq=   59 SFac= 1.00D+00 NAtFMM=   60 NAOKFM=F Big=F
 Integral buffers will be    131072 words long.
 Raffenetti 2 integral format.
 Two-electron integral symmetry is turned on.
 One-electron integrals computed using PRISM.
 NBasis=   598 RedAO= T EigKep=  4.47D-04  NBF=   598
 NBsUse=   598 1.00D-06 EigRej= -1.00D+00 NBFU=   598
 Initial guess from the checkpoint file:  "sps_iso.chk"
 B after Tr=    -0.000000    0.000000    0.000000
         Rot=    1.000000   -0.000000   -0.000000    0.000000 Ang=   0.00 deg.
 Requested convergence on RMS density matrix=1.00D-08 within 128 cycles.
 Requested convergence on MAX density matrix=1.00D-06.
 Requested convergence on             energy=1.00D-06.
 No special actions if energy rises.
 SCF Done:  E(RB3LYP) =  -2799.90368185     A.U. after    1 cycles
            NFock=  1  Conv=0.27D-08     -V/T= 2.0069

 **********************************************************************

            Population analysis using the SCF density.

 **********************************************************************

 Orbital symmetries:
       Occupied  (A) (A) (A) (A) (A) (A) (A) (A) (A) (A) (A) (A)
                 (A) (A) (A) (A) (A) (A) (A) (A) (A) (A) (A) (A)
                 (A) (A) (A) (A) (A) (A) (A) (A) (A) (A) (A) (A)
                 (A) (A) (A) (A) (A) (A) (A) (A) (A) (A) (A) (A)
                 (A) (A) (A) (A) (A) (A) (A) (A) (A) (A) (A) (A)
                 (A) (A) (A) (A) (A) (A) (A) (A) (A) (A) (A) (A)
                 (A) (A) (A) (A) (A) (A) (A) (A) (A) (A) (A) (A)
                 (A) (A) (A) (A) (A) (A) (A) (A) (A) (A) (A) (A)
                 (A) (A) (A) (A) (A) (A) (A) (A) (A) (A) (A) (A)
                 (A) (A) (A) (A) (A) (A) (A) (A) (A) (A) (A) (A)
                 (A) (A) (A) (A) (A) (A) (A) (A) (A) (A) (A) (A)
                 (A) (A) (A) (A) (A) (A) (A) (A) (A) (A) (A) (A)
                 (A)
       Virtual   (A) (A) (A) (A) (A) (A) (A) (A) (A) (A) (A) (A)
                 (A) (A) (A) (A) (A) (A) (A) (A) (A) (A) (A) (A)
                 (A) (A) (A) (A) (A) (A) (A) (A) (A) (A) (A) (A)
                 (A) (A) (A) (A) (A) (A) (A) (A) (A) (A) (A) (A)
                 (A) (A) (A) (A) (A) (A) (A) (A) (A) (A) (A) (A)
                 (A) (A) (A) (A) (A) (A) (A) (A) (A) (A) (A) (A)
                 (A) (A) (A) (A) (A) (A) (A) (A) (A) (A) (A) (A)
                 (A) (A) (A) (A) (A) (A) (A) (A) (A) (A) (A) (A)
                 (A) (A) (A) (A) (A) (A) (A) (A) (A) (A) (A) (A)
                 (A) (A) (A) (A) (A) (A) (A) (A) (A) (A) (A) (A)
                 (A) (A) (A) (A) (A) (A) (A) (A) (A) (A) (A) (A)
                 (A) (A) (A) (A) (A) (A) (A) (A) (A) (A) (A) (A)
                 (A) (A) (A) (A) (A) (A) (A) (A) (A) (A) (A) (A)
                 (A) (A) (A) (A) (A) (A) (A) (A) (A) (A) (A) (A)
                 (A) (A) (A) (A) (A) (A) (A) (A) (A) (A) (A) (A)
                 (A) (A) (A) (A) (A) (A) (A) (A) (A) (A) (A) (A)
                 (A) (A) (A) (A) (A) (A) (A) (A) (A) (A) (A) (A)
                 (A) (A) (A) (A) (A) (A) (A) (A) (A) (A) (A) (A)
                 (A) (A) (A) (A) (A) (A) (A) (A) (A) (A) (A) (A)
                 (A) (A) (A) (A) (A) (A) (A) (A) (A) (A) (A) (A)
                 (A) (A) (A) (A) (A) (A) (A) (A) (A) (A) (A) (A)
                 (A) (A) (A) (A) (A) (A) (A) (A) (A) (A) (A) (A)
                 (A) (A) (A) (A) (A) (A) (A) (A) (A) (A) (A) (A)
                 (A) (A) (A) (A) (A) (A) (A) (A) (A) (A) (A) (A)
                 (A) (A) (A) (A) (A) (A) (A) (A) (A) (A) (A) (A)
                 (A) (A) (A) (A) (A) (A) (A) (A) (A) (A) (A) (A)
                 (A) (A) (A) (A) (A) (A) (A) (A) (A) (A) (A) (A)
                 (A) (A) (A) (A) (A) (A) (A) (A) (A) (A) (A) (A)
                 (A) (A) (A) (A) (A) (A) (A) (A) (A) (A) (A) (A)
                 (A) (A) (A) (A) (A) (A) (A) (A) (A) (A) (A) (A)
                 (A) (A) (A) (A) (A) (A) (A) (A) (A) (A) (A) (A)
                 (A) (A) (A) (A) (A) (A) (A) (A) (A) (A) (A) (A)
                 (A) (A) (A) (A) (A) (A) (A) (A) (A) (A) (A) (A)
                 (A) (A) (A) (A) (A) (A) (A) (A) (A) (A) (A) (A)
                 (A) (A) (A) (A) (A) (A) (A) (A) (A) (A) (A) (A)
                 (A) (A) (A) (A) (A) (A) (A) (A) (A) (A) (A) (A)
                 (A) (A) (A) (A) (A) (A) (A) (A) (A) (A) (A) (A)
                 (A) (A) (A) (A) (A) (A) (A) (A) (A)
 The electronic state is 1-A.
 Alpha  occ. eigenvalues --  -88.83108 -88.82637 -88.82535 -18.84865 -18.84858
 Alpha  occ. eigenvalues --  -18.84711 -18.84398 -18.84392 -18.84293 -18.84291
 Alpha  occ. eigenvalues --  -18.84239 -18.84112  -9.99255  -9.98819  -9.98623
 Alpha  occ. eigenvalues --   -9.98562  -9.98193  -9.98071  -9.98045  -9.97759
 Alpha  occ. eigenvalues --   -9.97753  -9.97725  -9.97493  -9.97393  -9.97259
 Alpha  occ. eigenvalues --   -9.97254  -9.97221  -9.97202  -9.97140  -9.96998
 Alpha  occ. eigenvalues --   -9.96848  -9.96831  -9.96755  -9.96693  -9.96669
 Alpha  occ. eigenvalues --   -9.96592  -7.85130  -7.84658  -7.84555  -5.81594
 Alpha  occ. eigenvalues --   -5.81586  -5.81575  -5.81121  -5.81116  -5.81104
 Alpha  occ. eigenvalues --   -5.81020  -5.81012  -5.80999  -0.82975  -0.82495
 Alpha  occ. eigenvalues --   -0.82403  -0.69586  -0.69347  -0.69097  -0.68994
 Alpha  occ. eigenvalues --   -0.68879  -0.68790  -0.64507  -0.64010  -0.63525
 Alpha  occ. eigenvalues --   -0.60425  -0.58044  -0.55634  -0.52860  -0.52407
 Alpha  occ. eigenvalues --   -0.52237  -0.51777  -0.51127  -0.49384  -0.45339
 Alpha  occ. eigenvalues --   -0.41662  -0.40272  -0.39159  -0.38609  -0.38500
 Alpha  occ. eigenvalues --   -0.37446  -0.36495  -0.34060  -0.33244  -0.32724
 Alpha  occ. eigenvalues --   -0.32661  -0.28359  -0.27425  -0.26560  -0.25917
 Alpha  occ. eigenvalues --   -0.25323  -0.24086  -0.23621  -0.23139  -0.22980
 Alpha  occ. eigenvalues --   -0.22627  -0.22257  -0.21505  -0.21346  -0.20694
 Alpha  occ. eigenvalues --   -0.20364  -0.19940  -0.19654  -0.19237  -0.18946
 Alpha  occ. eigenvalues --   -0.18436  -0.17945  -0.17722  -0.17411  -0.17282
 Alpha  occ. eigenvalues --   -0.17060  -0.16870  -0.16776  -0.16296  -0.15411
 Alpha  occ. eigenvalues --   -0.14424  -0.14009  -0.13687  -0.13339  -0.13201
 Alpha  occ. eigenvalues --   -0.12446  -0.12301  -0.11612  -0.10585  -0.10461
 Alpha  occ. eigenvalues --   -0.10304  -0.05742  -0.05661  -0.05266  -0.05205
 Alpha  occ. eigenvalues --   -0.05143  -0.05098  -0.04619  -0.04267  -0.03892
 Alpha  occ. eigenvalues --   -0.03563  -0.03043  -0.02947  -0.02238  -0.02159
 Alpha  occ. eigenvalues --   -0.01761  -0.01675  -0.01667  -0.01572  -0.00240
 Alpha  occ. eigenvalues --    0.00176   0.00412   0.02084   0.02546   0.02667
 Alpha virt. eigenvalues --    0.20899   0.21310   0.21388   0.21614   0.21794
 Alpha virt. eigenvalues --    0.22064   0.27216   0.29477   0.29992   0.30810
 Alpha virt. eigenvalues --    0.31789   0.32328   0.33107   0.34371   0.34918
 Alpha virt. eigenvalues --    0.35208   0.35699   0.35825   0.36338   0.36781
 Alpha virt. eigenvalues --    0.37324   0.37654   0.38088   0.38624   0.38866
 Alpha virt. eigenvalues --    0.38980   0.39001   0.39257   0.39547   0.39616
 Alpha virt. eigenvalues --    0.39824   0.40331   0.40529   0.41170   0.41546
 Alpha virt. eigenvalues --    0.42258   0.42455   0.42681   0.43007   0.43436
 Alpha virt. eigenvalues --    0.44095   0.44575   0.44953   0.45652   0.45842
 Alpha virt. eigenvalues --    0.46236   0.46606   0.46777   0.47367   0.48839
 Alpha virt. eigenvalues --    0.49691   0.50752   0.52728   0.53676   0.53901
 Alpha virt. eigenvalues --    0.54611   0.54955   0.55507   0.56218   0.56544
 Alpha virt. eigenvalues --    0.57008   0.57294   0.57977   0.58694   0.60602
 Alpha virt. eigenvalues --    0.60954   0.61463   0.62451   0.62783   0.63091
 Alpha virt. eigenvalues --    0.65714   0.65882   0.66176   0.66323   0.66650
 Alpha virt. eigenvalues --    0.66747   0.67997   0.70318   0.70830   0.71452
 Alpha virt. eigenvalues --    0.72428   0.73188   0.73767   0.74997   0.75594
 Alpha virt. eigenvalues --    0.75960   0.76636   0.77445   0.78210   0.78261
 Alpha virt. eigenvalues --    0.78711   0.79734   0.79985   0.80310   0.80781
 Alpha virt. eigenvalues --    0.80903   0.81069   0.81303   0.81546   0.81627
 Alpha virt. eigenvalues --    0.81888   0.82183   0.82830   0.82942   0.83546
 Alpha virt. eigenvalues --    0.83809   0.84821   0.85236   0.85366   0.85896
 Alpha virt. eigenvalues --    0.86302   0.86996   0.87896   0.88048   0.88938
 Alpha virt. eigenvalues --    0.89124   0.89641   0.90121   0.91071   0.92858
 Alpha virt. eigenvalues --    0.93714   0.95009   0.95454   0.96087   0.97807
 Alpha virt. eigenvalues --    0.98574   0.99667   0.99917   1.00486   1.00554
 Alpha virt. eigenvalues --    1.01657   1.02538   1.02598   1.03059   1.03572
 Alpha virt. eigenvalues --    1.03765   1.04302   1.04794   1.04975   1.05225
 Alpha virt. eigenvalues --    1.05703   1.05870   1.06101   1.06276   1.06601
 Alpha virt. eigenvalues --    1.06671   1.06861   1.07041   1.07561   1.08389
 Alpha virt. eigenvalues --    1.08530   1.09415   1.10064   1.10204   1.10951
 Alpha virt. eigenvalues --    1.11152   1.11365   1.12199   1.12278   1.12499
 Alpha virt. eigenvalues --    1.12903   1.13270   1.13692   1.14262   1.14934
 Alpha virt. eigenvalues --    1.15134   1.15377   1.15869   1.17185   1.17531
 Alpha virt. eigenvalues --    1.18140   1.18358   1.19434   1.20502   1.21074
 Alpha virt. eigenvalues --    1.21769   1.21924   1.23013   1.23835   1.24280
 Alpha virt. eigenvalues --    1.25051   1.26118   1.26252   1.26427   1.27022
 Alpha virt. eigenvalues --    1.27107   1.28559   1.29844   1.30522   1.31075
 Alpha virt. eigenvalues --    1.31301   1.31631   1.31888   1.31932   1.32184
 Alpha virt. eigenvalues --    1.32308   1.32645   1.32905   1.32967   1.33185
 Alpha virt. eigenvalues --    1.35602   1.35791   1.36594   1.36666   1.37148
 Alpha virt. eigenvalues --    1.37690   1.38283   1.38803   1.39574   1.40153
 Alpha virt. eigenvalues --    1.41153   1.42451   1.43420   1.44035   1.46521
 Alpha virt. eigenvalues --    1.46585   1.48004   1.48183   1.48427   1.48676
 Alpha virt. eigenvalues --    1.49013   1.49289   1.49532   1.49638   1.50247
 Alpha virt. eigenvalues --    1.50291   1.52122   1.52730   1.52997   1.54063
 Alpha virt. eigenvalues --    1.55488   1.56425   1.57552   1.61728   1.63620
 Alpha virt. eigenvalues --    1.65072   1.65630   1.65998   1.66322   1.68037
 Alpha virt. eigenvalues --    1.68658   1.69230   1.69873   1.70340   1.70832
 Alpha virt. eigenvalues --    1.71262   1.71499   1.73111   1.73668   1.73900
 Alpha virt. eigenvalues --    1.74365   1.75073   1.75463   1.76991   1.77161
 Alpha virt. eigenvalues --    1.77214   1.77655   1.78695   1.83026   1.84084
 Alpha virt. eigenvalues --    1.84169   1.85352   1.86441   1.88845   1.90056
 Alpha virt. eigenvalues --    1.91297   1.92961   1.93804   1.95045   1.97139
 Alpha virt. eigenvalues --    1.98486   1.99701   2.01352   2.01622   2.02007
 Alpha virt. eigenvalues --    2.02244   2.02593   2.03438   2.04535   2.04832
 Alpha virt. eigenvalues --    2.05482   2.05960   2.06244   2.06673   2.06870
 Alpha virt. eigenvalues --    2.07888   2.08876   2.09246   2.09470   2.09602
 Alpha virt. eigenvalues --    2.09876   2.10246   2.10454   2.11261   2.11731
 Alpha virt. eigenvalues --    2.11816   2.11874   2.11980   2.12058   2.12489
 Alpha virt. eigenvalues --    2.12801   2.12972   2.14106   2.15552   2.16891
 Alpha virt. eigenvalues --    2.17712   2.18809   2.19035   2.19398   2.19547
 Alpha virt. eigenvalues --    2.20603   2.20701   2.21025   2.21426   2.21950
 Alpha virt. eigenvalues --    2.22368   2.22680   2.23747   2.24124   2.24284
 Alpha virt. eigenvalues --    2.25515   2.26301   2.26778   2.28525   2.29236
 Alpha virt. eigenvalues --    2.29751   2.30126   2.31021   2.31604   2.31822
 Alpha virt. eigenvalues --    2.33134   2.34902   2.35501   2.35959   2.36204
 Alpha virt. eigenvalues --    2.36489   2.36672   2.37014   2.38227   2.40049
 Alpha virt. eigenvalues --    2.40321   2.41624   2.41864   2.42076   2.42637
 Alpha virt. eigenvalues --    2.44388   2.45509   2.46678   2.48620   2.49393
 Alpha virt. eigenvalues --    2.50415   2.50888   2.51702   2.52472   2.52638
 Alpha virt. eigenvalues --    2.53145   2.54240   2.54659   2.55281   2.56253
 Alpha virt. eigenvalues --    2.56801   2.57336   2.59090   2.60125   2.60618
 Alpha virt. eigenvalues --    2.60895   2.61261   2.61484   2.62685   2.63840
 Alpha virt. eigenvalues --    2.66900   2.69543   2.71060   2.76379   2.78826
 Alpha virt. eigenvalues --    2.80753   2.83413   2.83735   2.84088   2.85660
 Alpha virt. eigenvalues --    2.85890   2.87135   2.87340   2.87793   2.88667
 Alpha virt. eigenvalues --    2.88852   2.89363   2.90580   2.92644   2.96103
 Alpha virt. eigenvalues --    2.96909   2.97205   2.97684   2.98328   2.99899
 Alpha virt. eigenvalues --    3.00502   3.00782   3.01538   3.01724   3.01995
 Alpha virt. eigenvalues --    3.02799   3.04960   3.09106   3.09568   3.09800
 Alpha virt. eigenvalues --    3.10430   3.10899   3.11006   3.13478   3.16053
 Alpha virt. eigenvalues --    3.18865   3.28918   3.31133   3.31684   3.59669
 Alpha virt. eigenvalues --    3.60180   3.60264   4.05815   4.05828   4.05971
 Alpha virt. eigenvalues --    4.08654   4.09200   4.09607   4.20326   4.20793
 Alpha virt. eigenvalues --    4.20981   4.31820   4.32965   4.33554   4.33584
 Alpha virt. eigenvalues --    4.33693   4.33955   4.34136   4.34282   4.35273
 Alpha virt. eigenvalues --    4.36928   4.40354   4.42096   4.43034   4.44990
 Alpha virt. eigenvalues --    4.51874   4.54695   4.55377   4.56076   4.62471
 Alpha virt. eigenvalues --    4.63678   4.65761   4.68879   4.81314   4.84318
 Alpha virt. eigenvalues --    4.92302   4.93270   4.94625
          Condensed to atoms (all electrons):
 Mulliken charges:
               1
     1  C   -0.449296
     2  C   -0.157013
     3  H    0.131131
     4  H    0.146526
     5  C    0.168195
     6  H    0.144309
     7  C   -0.199762
     8  C   -0.159642
     9  H    0.110898
    10  C   -0.116007
    11  H    0.138708
    12  C   -0.162107
    13  C   -0.183723
    14  H    0.136787
    15  H    0.097459
    16  S    1.087879
    17  O   -0.612966
    18  O   -0.625626
    19  O   -0.627108
    20  H    0.136492
    21  C   -0.263252
    22  C   -0.160795
    23  H    0.130658
    24  H    0.127962
    25  C    0.160575
    26  H    0.112538
    27  C   -0.184819
    28  C   -0.166020
    29  H    0.108038
    30  C   -0.114412
    31  H    0.140818
    32  C   -0.156919
    33  C   -0.183327
    34  H    0.136979
    35  H    0.092609
    36  S    1.089680
    37  O   -0.608127
    38  O   -0.624381
    39  O   -0.628402
    40  C   -0.263349
    41  C   -0.353878
    42  H    0.138322
    43  H    0.139675
    44  C    0.171471
    45  H    0.121613
    46  C   -0.184538
    47  C   -0.160370
    48  H    0.097264
    49  C   -0.115300
    50  H    0.138796
    51  C   -0.159862
    52  C   -0.178259
    53  H    0.137694
    54  H    0.094440
    55  S    1.089522
    56  O   -0.624284
    57  O   -0.624931
    58  O   -0.613512
    59  H    0.134948
 Sum of Mulliken charges =  -3.00000
 Mulliken charges with hydrogens summed into heavy atoms:
               1
     1  C   -0.035147
     2  C   -0.012704
     5  C    0.168195
     7  C   -0.088864
     8  C   -0.020935
    10  C   -0.116007
    12  C   -0.025320
    13  C   -0.086265
    16  S    1.087879
    17  O   -0.612966
    18  O   -0.625626
    19  O   -0.627108
    21  C   -0.004631
    22  C   -0.048257
    25  C    0.160575
    27  C   -0.076781
    28  C   -0.025203
    30  C   -0.114412
    32  C   -0.019939
    33  C   -0.090718
    36  S    1.089680
    37  O   -0.608127
    38  O   -0.624381
    39  O   -0.628402
    40  C    0.014648
    41  C   -0.097317
    44  C    0.171471
    46  C   -0.087275
    47  C   -0.021573
    49  C   -0.115300
    51  C   -0.022168
    52  C   -0.083820
    55  S    1.089522
    56  O   -0.624284
    57  O   -0.624931
    58  O   -0.613512
 Electronic spatial extent (au):  <R**2>=          38819.0645
 Charge=             -3.0000 electrons
 Dipole moment (field-independent basis, Debye):
    X=             -0.8694    Y=              0.3244    Z=              3.3930  Tot=              3.5176
 Quadrupole moment (field-independent basis, Debye-Ang):
   XX=           -818.7819   YY=           -599.8443   ZZ=           -256.1908
   XY=             -4.5445   XZ=            -11.4706   YZ=            -10.5656
 Traceless Quadrupole moment (field-independent basis, Debye-Ang):
   XX=           -260.5096   YY=            -41.5720   ZZ=            302.0816
   XY=             -4.5445   XZ=            -11.4706   YZ=            -10.5656
 Octapole moment (field-independent basis, Debye-Ang**2):
  XXX=           1252.6598  YYY=           1042.9101  ZZZ=             13.7371  XYY=           -852.1262
  XXY=          -1581.0351  XXZ=            124.0517  XZZ=             -4.9311  YZZ=            -17.0072
  YYZ=             62.6038  XYZ=            -42.0495
 Hexadecapole moment (field-independent basis, Debye-Ang**3):
 XXXX=         -66479.8701 YYYY=         -32560.7837 ZZZZ=          -1344.5047 XXXY=           -487.0973
 XXXZ=           -979.1484 YYYX=             58.0706 YYYZ=           -495.3114 ZZZX=             -6.3892
 ZZZY=             43.3380 XXYY=         -15738.4151 XXZZ=          -6241.2225 YYZZ=          -3783.6461
 XXYZ=             75.7359 YYXZ=            102.8562 ZZXY=              9.6033
 N-N= 4.092308771446D+03 E-N=-1.484021539837D+04  KE= 2.780685299866D+03
 Calling FoFJK, ICntrl=      2127 FMM=F ISym2X=0 I1Cent= 0 IOpClX= 0 NMat=1 NMatS=1 NMatT=0.
 ***** Axes restored to original set *****
 -------------------------------------------------------------------
 Center     Atomic                   Forces (Hartrees/Bohr)
 Number     Number              X              Y              Z
 -------------------------------------------------------------------
      1        6          -0.000001929    0.000000201    0.000000725
      2        6          -0.000000108    0.000003330   -0.000003051
      3        1          -0.000000274   -0.000000219    0.000000030
      4        1           0.000000986   -0.000000329    0.000002198
      5        6           0.000003447    0.000002651   -0.000000181
      6        1          -0.000000200   -0.000000397    0.000000338
      7        6          -0.000000911   -0.000000251    0.000001585
      8        6          -0.000000072    0.000000854   -0.000001233
      9        1          -0.000000110   -0.000000088   -0.000000389
     10        6           0.000001240   -0.000000858   -0.000000565
     11        1           0.000000139    0.000000088   -0.000000005
     12        6           0.000000060    0.000000262    0.000001157
     13        6          -0.000000898    0.000000657   -0.000000788
     14        1           0.000000624    0.000000425    0.000000106
     15        1           0.000000375    0.000000054   -0.000000191
     16       16           0.000000594    0.000001074    0.000000256
     17        8          -0.000002307   -0.000001417   -0.000000296
     18        8           0.000003333   -0.000001625   -0.000000752
     19        8           0.000000446    0.000002951    0.000001118
     20        1           0.000000091    0.000000655   -0.000000065
     21        6           0.000003365   -0.000002272    0.000004865
     22        6          -0.000000392   -0.000004388   -0.000005095
     23        1           0.000000545    0.000000267   -0.000000349
     24        1          -0.000000069   -0.000000467    0.000000699
     25        6          -0.000003546   -0.000001333    0.000001683
     26        1           0.000000160    0.000001484   -0.000000983
     27        6          -0.000000393   -0.000000631   -0.000000163
     28        6           0.000000365   -0.000001222   -0.000000707
     29        1          -0.000000515   -0.000000694   -0.000000389
     30        6          -0.000000302   -0.000001224    0.000000148
     31        1          -0.000001570    0.000000360    0.000000143
     32        6           0.000000570    0.000001385    0.000000399
     33        6           0.000000118   -0.000001112   -0.000000870
     34        1          -0.000000606   -0.000001608    0.000000483
     35        1          -0.000000204   -0.000000691    0.000000256
     36       16          -0.000001630   -0.000000165    0.000001354
     37        8          -0.000002899   -0.000001786   -0.000003258
     38        8          -0.000002001   -0.000000206    0.000001322
     39        8           0.000002902    0.000000476    0.000000111
     40        6           0.000002309    0.000003147   -0.000000430
     41        6          -0.000002218   -0.000000858    0.000003335
     42        1          -0.000000327    0.000001282   -0.000001107
     43        1          -0.000000208    0.000000378   -0.000000437
     44        6          -0.000001586    0.000000435   -0.000000989
     45        1           0.000000434   -0.000000453    0.000000228
     46        6           0.000001721   -0.000000428   -0.000000478
     47        6           0.000000283    0.000000788    0.000001641
     48        1          -0.000000129    0.000000283    0.000000238
     49        6          -0.000000444    0.000001314   -0.000001937
     50        1           0.000000309    0.000000182   -0.000000381
     51        6           0.000001459   -0.000000375   -0.000000719
     52        6           0.000000147    0.000000639    0.000001067
     53        1          -0.000000196   -0.000000157    0.000000083
     54        1           0.000000035   -0.000000668    0.000000211
     55       16           0.000006044    0.000001838   -0.000002680
     56        8          -0.000009655   -0.000000686   -0.000001771
     57        8           0.000003129   -0.000000474    0.000005062
     58        8           0.000000741    0.000000062    0.000000558
     59        1          -0.000000271   -0.000000439   -0.000001141
 -------------------------------------------------------------------
 Cartesian Forces:  Max     0.000009655 RMS     0.000001681

 GradGradGradGradGradGradGradGradGradGradGradGradGradGradGradGradGradGrad
 Berny optimization.
 FormGI is forming the generalized inverse of G from B-inverse, IUseBI=4.
 Internal  Forces:  Max     0.000009898 RMS     0.000001282
 Search for a local minimum.
 Step number   1 out of a maximum of  332
 All quantities printed in internal units (Hartrees-Bohrs-Radians)
 Mixed Optimization -- En-DIIS/RFO-DIIS
 Second derivative matrix not updated -- first step.
 ITU=  0
     Eigenvalues ---    0.00230   0.00230   0.00230   0.00230   0.00230
     Eigenvalues ---    0.00230   0.00230   0.00230   0.00361   0.00378
     Eigenvalues ---    0.00524   0.01294   0.01301   0.01333   0.01412
     Eigenvalues ---    0.01418   0.01459   0.02049   0.02055   0.02065
     Eigenvalues ---    0.02081   0.02086   0.02094   0.02095   0.02095
     Eigenvalues ---    0.02101   0.02117   0.02117   0.02121   0.02129
     Eigenvalues ---    0.02131   0.02131   0.02134   0.02134   0.02139
     Eigenvalues ---    0.02139   0.02140   0.02150   0.02734   0.02774
     Eigenvalues ---    0.03299   0.03487   0.03769   0.04594   0.04620
     Eigenvalues ---    0.04722   0.04902   0.05294   0.05325   0.05499
     Eigenvalues ---    0.05944   0.05993   0.08438   0.09553   0.09659
     Eigenvalues ---    0.12304   0.12772   0.12785   0.12795   0.12806
     Eigenvalues ---    0.12830   0.12854   0.13051   0.13063   0.15989
     Eigenvalues ---    0.15991   0.15995   0.15997   0.15997   0.15998
     Eigenvalues ---    0.15999   0.15999   0.16000   0.16000   0.16000
     Eigenvalues ---    0.16000   0.16000   0.16000   0.16000   0.17469
     Eigenvalues ---    0.18127   0.18716   0.19534   0.21905   0.21967
     Eigenvalues ---    0.21999   0.22000   0.22001   0.22025   0.22954
     Eigenvalues ---    0.22959   0.22959   0.23990   0.23995   0.23997
     Eigenvalues ---    0.24256   0.24295   0.24302   0.24960   0.24980
     Eigenvalues ---    0.24987   0.24997   0.24998   0.24999   0.25000
     Eigenvalues ---    0.25000   0.25000   0.25000   0.25000   0.25000
     Eigenvalues ---    0.25000   0.25000   0.25000   0.26493   0.27545
     Eigenvalues ---    0.27555   0.27994   0.28444   0.29370   0.29486
     Eigenvalues ---    0.30529   0.33463   0.33658   0.33871   0.33944
     Eigenvalues ---    0.33955   0.33975   0.34007   0.34017   0.34115
     Eigenvalues ---    0.34211   0.34338   0.34811   0.34829   0.34852
     Eigenvalues ---    0.34900   0.34932   0.35130   0.35283   0.35290
     Eigenvalues ---    0.35291   0.35294   0.35294   0.35301   0.41546
     Eigenvalues ---    0.41581   0.41651   0.41839   0.41864   0.41899
     Eigenvalues ---    0.45203   0.45288   0.45395   0.45655   0.45684
     Eigenvalues ---    0.45703   0.46112   0.46137   0.46150   0.46292
     Eigenvalues ---    0.46326   0.46463   0.79910   0.79996   0.80043
     Eigenvalues ---    0.80105   0.80107   0.80180   0.80190   0.80239
     Eigenvalues ---    0.80534
 RFO step:  Lambda= 0.00000000D+00 EMin= 2.30000000D-03
 Linear search not attempted -- first point.
 Iteration  1 RMS(Cart)=  0.00044477 RMS(Int)=  0.00000002
 Iteration  2 RMS(Cart)=  0.00000005 RMS(Int)=  0.00000000
 Variable       Old X    -DE/DX   Delta X   Delta X   Delta X     New X
                                 (Linear)    (Quad)   (Total)
    R1        2.91179   0.00000   0.00000   0.00001   0.00001   2.91179
    R2        2.07319  -0.00000   0.00000  -0.00000  -0.00000   2.07319
    R3        2.06764   0.00000   0.00000   0.00001   0.00001   2.06764
    R4        2.07137  -0.00000   0.00000  -0.00000  -0.00000   2.07137
    R5        2.89001   0.00000   0.00000   0.00000   0.00000   2.89001
    R6        2.07372   0.00000   0.00000   0.00000   0.00000   2.07372
    R7        2.93144  -0.00000   0.00000  -0.00001  -0.00001   2.93144
    R8        2.64948  -0.00000   0.00000  -0.00000  -0.00000   2.64948
    R9        2.65455   0.00000   0.00000   0.00000   0.00000   2.65455
   R10        2.64062   0.00000   0.00000   0.00000   0.00000   2.64062
   R11        2.05837  -0.00000   0.00000  -0.00000  -0.00000   2.05837
   R12        2.63797  -0.00000   0.00000  -0.00000  -0.00000   2.63796
   R13        2.05205   0.00000   0.00000   0.00000   0.00000   2.05205
   R14        2.64098   0.00000   0.00000   0.00000   0.00000   2.64098
   R15        3.44717  -0.00000   0.00000  -0.00000  -0.00000   3.44717
   R16        2.63696  -0.00000   0.00000  -0.00000  -0.00000   2.63696
   R17        2.05218  -0.00000   0.00000  -0.00000  -0.00000   2.05218
   R18        2.05785  -0.00000   0.00000  -0.00000  -0.00000   2.05785
   R19        2.81558   0.00000   0.00000   0.00000   0.00000   2.81558
   R20        2.81559   0.00000   0.00000   0.00000   0.00000   2.81559
   R21        2.81618   0.00000   0.00000   0.00000   0.00000   2.81618
   R22        2.95556  -0.00001   0.00000  -0.00002  -0.00002   2.95554
   R23        2.07425   0.00000   0.00000   0.00000   0.00000   2.07425
   R24        2.07548  -0.00000   0.00000  -0.00000  -0.00000   2.07548
   R25        2.89237   0.00000   0.00000   0.00001   0.00001   2.89237
   R26        2.08246   0.00000   0.00000   0.00000   0.00000   2.08246
   R27        2.93121   0.00000   0.00000   0.00001   0.00001   2.93122
   R28        2.65024   0.00000   0.00000   0.00000   0.00000   2.65025
   R29        2.65607   0.00000   0.00000   0.00000   0.00000   2.65607
   R30        2.64305   0.00000   0.00000   0.00000   0.00000   2.64306
   R31        2.05465  -0.00000   0.00000  -0.00000  -0.00000   2.05465
   R32        2.63622   0.00000   0.00000   0.00000   0.00000   2.63622
   R33        2.05189   0.00000   0.00000   0.00000   0.00000   2.05189
   R34        2.64139   0.00000   0.00000   0.00000   0.00000   2.64139
   R35        3.44839  -0.00000   0.00000  -0.00000  -0.00000   3.44839
   R36        2.63407  -0.00000   0.00000  -0.00000  -0.00000   2.63407
   R37        2.05200  -0.00000   0.00000  -0.00000  -0.00000   2.05200
   R38        2.05982  -0.00000   0.00000  -0.00000  -0.00000   2.05982
   R39        2.81329   0.00000   0.00000   0.00000   0.00000   2.81329
   R40        2.81519   0.00000   0.00000   0.00000   0.00000   2.81519
   R41        2.81664   0.00000   0.00000   0.00000   0.00000   2.81664
   R42        2.92151  -0.00000   0.00000  -0.00000  -0.00000   2.92151
   R43        2.06975  -0.00000   0.00000  -0.00000  -0.00000   2.06975
   R44        2.07406  -0.00000   0.00000  -0.00000  -0.00000   2.07406
   R45        2.86921   0.00000   0.00000   0.00000   0.00000   2.86922
   R46        2.07911   0.00000   0.00000   0.00000   0.00000   2.07911
   R47        2.07302   0.00000   0.00000   0.00000   0.00000   2.07302
   R48        2.64919  -0.00000   0.00000  -0.00000  -0.00000   2.64919
   R49        2.65216   0.00000   0.00000   0.00000   0.00000   2.65216
   R50        2.63959   0.00000   0.00000   0.00000   0.00000   2.63959
   R51        2.05916  -0.00000   0.00000  -0.00000  -0.00000   2.05916
   R52        2.63868  -0.00000   0.00000  -0.00000  -0.00000   2.63868
   R53        2.05200  -0.00000   0.00000  -0.00000  -0.00000   2.05200
   R54        2.64091   0.00000   0.00000   0.00000   0.00000   2.64091
   R55        3.44735   0.00000   0.00000   0.00001   0.00001   3.44736
   R56        2.63651  -0.00000   0.00000  -0.00000  -0.00000   2.63651
   R57        2.05206  -0.00000   0.00000  -0.00000  -0.00000   2.05206
   R58        2.05954   0.00000   0.00000   0.00000   0.00000   2.05954
   R59        2.81487   0.00001   0.00000   0.00001   0.00001   2.81488
   R60        2.81513   0.00001   0.00000   0.00001   0.00001   2.81514
   R61        2.81593  -0.00000   0.00000  -0.00000  -0.00000   2.81593
    A1        1.95150   0.00000   0.00000   0.00001   0.00001   1.95151
    A2        1.94205  -0.00000   0.00000  -0.00001  -0.00001   1.94203
    A3        1.92381   0.00000   0.00000   0.00000   0.00000   1.92381
    A4        1.88498   0.00000   0.00000  -0.00000  -0.00000   1.88498
    A5        1.87742  -0.00000   0.00000   0.00000   0.00000   1.87742
    A6        1.88138   0.00000   0.00000   0.00001   0.00001   1.88138
    A7        1.93826   0.00000   0.00000   0.00002   0.00002   1.93828
    A8        1.86973   0.00000   0.00000  -0.00002  -0.00002   1.86971
    A9        1.99406  -0.00000   0.00000  -0.00002  -0.00002   1.99404
   A10        1.87095  -0.00000   0.00000   0.00000   0.00000   1.87095
   A11        1.91630   0.00000   0.00000   0.00002   0.00002   1.91632
   A12        1.86859   0.00000   0.00000  -0.00001  -0.00001   1.86858
   A13        2.10902  -0.00000   0.00000  -0.00001  -0.00001   2.10901
   A14        2.12481   0.00000   0.00000   0.00001   0.00001   2.12482
   A15        2.04934   0.00000   0.00000   0.00000   0.00000   2.04934
   A16        2.11982   0.00000   0.00000   0.00000   0.00000   2.11982
   A17        2.07731   0.00000   0.00000   0.00000   0.00000   2.07731
   A18        2.08605  -0.00000   0.00000  -0.00000  -0.00000   2.08605
   A19        2.10192  -0.00000   0.00000  -0.00000  -0.00000   2.10191
   A20        2.11017   0.00000   0.00000   0.00000   0.00000   2.11017
   A21        2.07099   0.00000   0.00000   0.00000   0.00000   2.07099
   A22        2.07370   0.00000   0.00000   0.00000   0.00000   2.07371
   A23        2.10685  -0.00000   0.00000  -0.00000  -0.00000   2.10684
   A24        2.10197   0.00000   0.00000   0.00000   0.00000   2.10198
   A25        2.10311   0.00000   0.00000   0.00000   0.00000   2.10312
   A26        2.06994   0.00000   0.00000   0.00000   0.00000   2.06994
   A27        2.10998  -0.00000   0.00000  -0.00000  -0.00000   2.10998
   A28        2.11840  -0.00000   0.00000  -0.00000  -0.00000   2.11840
   A29        2.08712   0.00000   0.00000   0.00000   0.00000   2.08712
   A30        2.07766   0.00000   0.00000   0.00000   0.00000   2.07766
   A31        1.82398  -0.00000   0.00000  -0.00001  -0.00001   1.82397
   A32        1.82025  -0.00000   0.00000  -0.00001  -0.00001   1.82024
   A33        1.81853  -0.00000   0.00000  -0.00000  -0.00000   1.81853
   A34        1.98856   0.00000   0.00000   0.00000   0.00000   1.98857
   A35        1.98760   0.00000   0.00000   0.00000   0.00000   1.98760
   A36        1.99734   0.00000   0.00000   0.00001   0.00001   1.99735
   A37        2.09717  -0.00000   0.00000  -0.00002  -0.00002   2.09715
   A38        1.85104   0.00000   0.00000   0.00002   0.00002   1.85106
   A39        1.89936   0.00000   0.00000  -0.00002  -0.00002   1.89935
   A40        1.86568   0.00000   0.00000   0.00003   0.00003   1.86571
   A41        1.89549  -0.00000   0.00000  -0.00002  -0.00002   1.89546
   A42        1.83807  -0.00000   0.00000   0.00001   0.00001   1.83808
   A43        1.96856   0.00000   0.00000   0.00001   0.00001   1.96857
   A44        1.80787  -0.00000   0.00000  -0.00002  -0.00002   1.80785
   A45        2.01609  -0.00000   0.00000  -0.00002  -0.00002   2.01607
   A46        1.83477  -0.00000   0.00000   0.00002   0.00002   1.83479
   A47        1.98745   0.00000   0.00000   0.00001   0.00001   1.98745
   A48        1.82194   0.00000   0.00000   0.00001   0.00001   1.82194
   A49        2.15746   0.00000   0.00000   0.00001   0.00001   2.15748
   A50        2.07958  -0.00000   0.00000  -0.00001  -0.00001   2.07957
   A51        2.04574  -0.00000   0.00000  -0.00000  -0.00000   2.04573
   A52        2.11737   0.00000   0.00000   0.00000   0.00000   2.11737
   A53        2.09076   0.00000   0.00000   0.00000   0.00000   2.09076
   A54        2.07470  -0.00000   0.00000  -0.00000  -0.00000   2.07470
   A55        2.10615   0.00000   0.00000   0.00000   0.00000   2.10615
   A56        2.10682  -0.00000   0.00000  -0.00001  -0.00001   2.10681
   A57        2.06976   0.00000   0.00000   0.00001   0.00001   2.06977
   A58        2.07210  -0.00000   0.00000  -0.00000  -0.00000   2.07210
   A59        2.10976   0.00000   0.00000   0.00000   0.00000   2.10976
   A60        2.10122   0.00000   0.00000   0.00000   0.00000   2.10123
   A61        2.10061  -0.00000   0.00000  -0.00000  -0.00000   2.10061
   A62        2.07120  -0.00000   0.00000  -0.00001  -0.00001   2.07120
   A63        2.11078   0.00000   0.00000   0.00001   0.00001   2.11079
   A64        2.12438   0.00000   0.00000   0.00000   0.00000   2.12438
   A65        2.07615  -0.00000   0.00000  -0.00000  -0.00000   2.07615
   A66        2.08244  -0.00000   0.00000  -0.00000  -0.00000   2.08244
   A67        1.82704  -0.00000   0.00000  -0.00001  -0.00001   1.82704
   A68        1.81810  -0.00000   0.00000  -0.00001  -0.00001   1.81809
   A69        1.81430  -0.00000   0.00000  -0.00000  -0.00000   1.81430
   A70        1.99048   0.00000   0.00000   0.00000   0.00000   1.99048
   A71        1.98876   0.00000   0.00000   0.00001   0.00001   1.98876
   A72        1.99688   0.00000   0.00000   0.00000   0.00000   1.99688
   A73        1.98154   0.00001   0.00000   0.00002   0.00002   1.98157
   A74        1.95418  -0.00000   0.00000  -0.00002  -0.00002   1.95416
   A75        1.88429  -0.00000   0.00000   0.00001   0.00001   1.88430
   A76        1.89921  -0.00000   0.00000  -0.00003  -0.00003   1.89918
   A77        1.88831  -0.00000   0.00000   0.00001   0.00001   1.88832
   A78        1.85058   0.00000   0.00000   0.00001   0.00001   1.85058
   A79        2.00258   0.00000   0.00000   0.00001   0.00001   2.00259
   A80        1.88749  -0.00000   0.00000  -0.00000  -0.00000   1.88749
   A81        1.91416  -0.00000   0.00000  -0.00001  -0.00001   1.91414
   A82        1.90067  -0.00000   0.00000   0.00000   0.00000   1.90067
   A83        1.90070  -0.00000   0.00000  -0.00000  -0.00000   1.90069
   A84        1.85230   0.00000   0.00000   0.00000   0.00000   1.85230
   A85        2.11976   0.00000   0.00000   0.00000   0.00000   2.11976
   A86        2.11076  -0.00000   0.00000  -0.00000  -0.00000   2.11076
   A87        2.05260  -0.00000   0.00000  -0.00000  -0.00000   2.05260
   A88        2.11744   0.00000   0.00000   0.00000   0.00000   2.11744
   A89        2.07894   0.00000   0.00000   0.00000   0.00000   2.07894
   A90        2.08677  -0.00000   0.00000  -0.00000  -0.00000   2.08676
   A91        2.10139   0.00000   0.00000   0.00000   0.00000   2.10139
   A92        2.11178  -0.00000   0.00000  -0.00000  -0.00000   2.11177
   A93        2.07001   0.00000   0.00000   0.00000   0.00000   2.07001
   A94        2.07561  -0.00000   0.00000  -0.00000  -0.00000   2.07560
   A95        2.10464   0.00000   0.00000   0.00001   0.00001   2.10465
   A96        2.10162  -0.00000   0.00000  -0.00000  -0.00000   2.10162
   A97        2.10124   0.00000   0.00000   0.00000   0.00000   2.10124
   A98        2.06980  -0.00000   0.00000  -0.00000  -0.00000   2.06980
   A99        2.11213   0.00000   0.00000   0.00000   0.00000   2.11213
   A100       2.11777   0.00000   0.00000   0.00000   0.00000   2.11777
   A101       2.07899   0.00000   0.00000   0.00000   0.00000   2.07899
   A102       2.08640  -0.00000   0.00000  -0.00000  -0.00000   2.08640
   A103       1.82028   0.00000   0.00000   0.00001   0.00001   1.82029
   A104       1.81952   0.00000   0.00000   0.00001   0.00001   1.81953
   A105       1.81978  -0.00000   0.00000  -0.00001  -0.00001   1.81977
   A106       1.99965   0.00000   0.00000   0.00001   0.00001   1.99966
   A107       1.98867  -0.00000   0.00000  -0.00001  -0.00001   1.98866
   A108       1.98768  -0.00000   0.00000  -0.00001  -0.00001   1.98766
    D1       -1.22500  -0.00000   0.00000   0.00005   0.00005  -1.22495
    D2        3.02046  -0.00000   0.00000   0.00004   0.00004   3.02051
    D3        0.95405   0.00000   0.00000   0.00008   0.00008   0.95413
    D4        2.94869  -0.00000   0.00000   0.00005   0.00005   2.94875
    D5        0.91097  -0.00000   0.00000   0.00005   0.00005   0.91102
    D6       -1.15544   0.00000   0.00000   0.00009   0.00009  -1.15535
    D7        0.86243  -0.00000   0.00000   0.00005   0.00005   0.86248
    D8       -1.17530  -0.00000   0.00000   0.00005   0.00005  -1.17525
    D9        3.04148   0.00000   0.00000   0.00009   0.00009   3.04156
   D10       -2.13126  -0.00000   0.00000   0.00005   0.00005  -2.13121
   D11        1.01695  -0.00000   0.00000  -0.00004  -0.00004   1.01690
   D12       -0.09428   0.00000   0.00000   0.00004   0.00004  -0.09424
   D13        3.05393  -0.00000   0.00000  -0.00005  -0.00005   3.05387
   D14        1.92971   0.00000   0.00000   0.00004   0.00004   1.92974
   D15       -1.20528   0.00000   0.00000  -0.00005  -0.00005  -1.20533
   D16        1.06995  -0.00000   0.00000  -0.00030  -0.00030   1.06965
   D17       -3.09909  -0.00000   0.00000  -0.00025  -0.00025  -3.09934
   D18       -1.12932  -0.00000   0.00000  -0.00024  -0.00024  -1.12955
   D19       -3.02258  -0.00000   0.00000  -0.00027  -0.00027  -3.02285
   D20       -0.90844   0.00000   0.00000  -0.00022  -0.00022  -0.90866
   D21        1.06134   0.00000   0.00000  -0.00021  -0.00021   1.06113
   D22       -0.99711  -0.00000   0.00000  -0.00026  -0.00026  -0.99737
   D23        1.11703   0.00000   0.00000  -0.00021  -0.00021   1.11682
   D24        3.08681   0.00000   0.00000  -0.00020  -0.00020   3.08661
   D25        3.13905  -0.00000   0.00000  -0.00007  -0.00007   3.13898
   D26       -0.00523  -0.00000   0.00000  -0.00005  -0.00005  -0.00529
   D27       -0.00887  -0.00000   0.00000   0.00001   0.00001  -0.00886
   D28        3.13003   0.00000   0.00000   0.00003   0.00003   3.13006
   D29       -3.13914   0.00000   0.00000   0.00007   0.00007  -3.13907
   D30        0.00466   0.00000   0.00000   0.00006   0.00006   0.00471
   D31        0.00884   0.00000   0.00000  -0.00001  -0.00001   0.00883
   D32       -3.13054  -0.00000   0.00000  -0.00003  -0.00003  -3.13057
[...]
 ! D13   D(6,2,5,13)           174.9771         -DE/DX =    0.0                 !
 ! D14   D(21,2,5,7)           110.564          -DE/DX =    0.0                 !
 ! D15   D(21,2,5,13)          -69.0574         -DE/DX =    0.0                 !
 ! D16   D(1,2,21,22)           61.3035         -DE/DX =    0.0                 !
 ! D17   D(1,2,21,23)         -177.565          -DE/DX =    0.0                 !
 ! D18   D(1,2,21,24)          -64.705          -DE/DX =    0.0                 !
 ! D19   D(5,2,21,22)         -173.1813         -DE/DX =    0.0                 !
 ! D20   D(5,2,21,23)          -52.0498         -DE/DX =    0.0                 !
 ! D21   D(5,2,21,24)           60.8102         -DE/DX =    0.0                 !
 ! D22   D(6,2,21,22)          -57.1304         -DE/DX =    0.0                 !
 ! D23   D(6,2,21,23)           64.0012         -DE/DX =    0.0                 !
 ! D24   D(6,2,21,24)          176.8612         -DE/DX =    0.0                 !
 ! D25   D(2,5,7,8)            179.8544         -DE/DX =    0.0                 !
 ! D26   D(2,5,7,9)             -0.2998         -DE/DX =    0.0                 !
 ! D27   D(13,5,7,8)            -0.5084         -DE/DX =    0.0                 !
 ! D28   D(13,5,7,9)           179.3374         -DE/DX =    0.0                 !
 ! D29   D(2,5,13,12)         -179.8596         -DE/DX =    0.0                 !
 ! D30   D(2,5,13,15)            0.267          -DE/DX =    0.0                 !
 ! D31   D(7,5,13,12)            0.5067         -DE/DX =    0.0                 !
 ! D32   D(7,5,13,15)         -179.3668         -DE/DX =    0.0                 !
 ! D33   D(5,7,8,10)            -0.0324         -DE/DX =    0.0                 !
 ! D34   D(5,7,8,11)           179.0051         -DE/DX =    0.0                 !
 ! D35   D(9,7,8,10)          -179.8775         -DE/DX =    0.0                 !
 ! D36   D(9,7,8,11)            -0.84           -DE/DX =    0.0                 !
 ! D37   D(7,8,10,12)            0.5841         -DE/DX =    0.0                 !
 ! D38   D(7,8,10,16)         -177.1902         -DE/DX =    0.0                 !
 ! D39   D(11,8,10,12)        -178.4748         -DE/DX =    0.0                 !
 ! D40   D(11,8,10,16)           3.7509         -DE/DX =    0.0                 !
 ! D41   D(8,10,12,13)          -0.5858         -DE/DX =    0.0                 !
 ! D42   D(8,10,12,14)         178.3775         -DE/DX =    0.0                 !
 ! D43   D(16,10,12,13)        177.1949         -DE/DX =    0.0                 !
 ! D44   D(16,10,12,14)         -3.8418         -DE/DX =    0.0                 !
 ! D45   D(8,10,16,17)          89.7773         -DE/DX =    0.0                 !
 ! D46   D(8,10,16,18)         -30.1157         -DE/DX =    0.0                 !
 ! D47   D(8,10,16,19)        -150.4354         -DE/DX =    0.0                 !
 ! D48   D(12,10,16,17)        -87.961          -DE/DX =    0.0                 !
 ! D49   D(12,10,16,18)        152.1461         -DE/DX =    0.0                 !
 ! D50   D(12,10,16,19)         31.8264         -DE/DX =    0.0                 !
 ! D51   D(10,12,13,5)           0.0357         -DE/DX =    0.0                 !
 ! D52   D(10,12,13,15)        179.9098         -DE/DX =    0.0                 !
 ! D53   D(14,12,13,5)        -178.9036         -DE/DX =    0.0                 !
 ! D54   D(14,12,13,15)          0.9705         -DE/DX =    0.0                 !
 ! D55   D(2,21,22,25)          49.2644         -DE/DX =    0.0                 !
 ! D56   D(2,21,22,26)         162.3858         -DE/DX =    0.0                 !
 ! D57   D(2,21,22,40)         -84.1234         -DE/DX =    0.0                 !
 ! D58   D(23,21,22,25)        -71.453          -DE/DX =    0.0                 !
 ! D59   D(23,21,22,26)         41.6684         -DE/DX =    0.0                 !
 ! D60   D(23,21,22,40)        155.1592         -DE/DX =    0.0                 !
 ! D61   D(24,21,22,25)        175.3762         -DE/DX =    0.0                 !
 ! D62   D(24,21,22,26)        -71.5024         -DE/DX =    0.0                 !
 ! D63   D(24,21,22,40)         41.9884         -DE/DX =    0.0                 !
 ! D64   D(21,22,25,27)       -106.3834         -DE/DX =    0.0                 !
 ! D65   D(21,22,25,33)         75.4265         -DE/DX =    0.0                 !
 ! D66   D(26,22,25,27)        141.4406         -DE/DX =    0.0                 !
 ! D67   D(26,22,25,33)        -36.7495         -DE/DX =    0.0                 !
 ! D68   D(40,22,25,27)         27.792          -DE/DX =    0.0                 !
 ! D69   D(40,22,25,33)       -150.3982         -DE/DX =    0.0                 !
 ! D70   D(21,22,40,41)        -65.0154         -DE/DX =    0.0                 !
 ! D71   D(21,22,40,42)         58.6953         -DE/DX =    0.0                 !
 ! D72   D(21,22,40,43)        175.0403         -DE/DX =    0.0                 !
 ! D73   D(25,22,40,41)        162.0948         -DE/DX =    0.0                 !
 ! D74   D(25,22,40,42)        -74.1945         -DE/DX =    0.0                 !
 ! D75   D(25,22,40,43)         42.1505         -DE/DX =    0.0                 !
 ! D76   D(26,22,40,41)         48.0083         -DE/DX =    0.0                 !
 ! D77   D(26,22,40,42)        171.719          -DE/DX =    0.0                 !
 ! D78   D(26,22,40,43)        -71.936          -DE/DX =    0.0                 !
 ! D79   D(22,25,27,28)       -177.8723         -DE/DX =    0.0                 !
 ! D80   D(22,25,27,29)          0.457          -DE/DX =    0.0                 !
 ! D81   D(33,25,27,28)          0.3503         -DE/DX =    0.0                 !
 ! D82   D(33,25,27,29)        178.6796         -DE/DX =    0.0                 !
 ! D83   D(22,25,33,32)        178.0666         -DE/DX =    0.0                 !
 ! D84   D(22,25,33,35)         -0.6644         -DE/DX =    0.0                 !
 ! D85   D(27,25,33,32)         -0.2386         -DE/DX =    0.0                 !
 ! D86   D(27,25,33,35)       -178.9696         -DE/DX =    0.0                 !
 ! D87   D(25,27,28,30)         -0.1351         -DE/DX =    0.0                 !
 ! D88   D(25,27,28,31)        177.9783         -DE/DX =    0.0                 !
 ! D89   D(29,27,28,30)       -178.4794         -DE/DX =    0.0                 !
 ! D90   D(29,27,28,31)         -0.366          -DE/DX =    0.0                 !
 ! D91   D(27,28,30,32)         -0.2028         -DE/DX =    0.0                 !
 ! D92   D(27,28,30,36)       -179.3661         -DE/DX =    0.0                 !
 ! D93   D(31,28,30,32)       -178.3556         -DE/DX =    0.0                 !
 ! D94   D(31,28,30,36)          2.4811         -DE/DX =    0.0                 !
 ! D95   D(28,30,32,33)          0.3135         -DE/DX =    0.0                 !
 ! D96   D(28,30,32,34)        178.2169         -DE/DX =    0.0                 !
 ! D97   D(36,30,32,33)        179.481          -DE/DX =    0.0                 !
 ! D98   D(36,30,32,34)         -2.6156         -DE/DX =    0.0                 !
 ! D99   D(28,30,36,37)         91.383          -DE/DX =    0.0                 !
 ! D100  D(28,30,36,38)        -28.6564         -DE/DX =    0.0                 !
 ! D101  D(28,30,36,39)       -148.7858         -DE/DX =    0.0                 !
 ! D102  D(32,30,36,37)        -87.7663         -DE/DX =    0.0                 !
 ! D103  D(32,30,36,38)        152.1943         -DE/DX =    0.0                 !
 ! D104  D(32,30,36,39)         32.0649         -DE/DX =    0.0                 !
 ! D105  D(30,32,33,25)         -0.0916         -DE/DX =    0.0                 !
 ! D106  D(30,32,33,35)        178.635          -DE/DX =    0.0                 !
 ! D107  D(34,32,33,25)       -177.9468         -DE/DX =    0.0                 !
 ! D108  D(34,32,33,35)          0.7798         -DE/DX =    0.0                 !
 ! D109  D(22,40,41,44)       -170.9478         -DE/DX =    0.0                 !
 ! D110  D(22,40,41,45)        -49.1898         -DE/DX =    0.0                 !
 ! D111  D(22,40,41,59)         66.1277         -DE/DX =    0.0                 !
 ! D112  D(42,40,41,44)         63.6415         -DE/DX =    0.0                 !
 ! D113  D(42,40,41,45)       -174.6005         -DE/DX =    0.0                 !
 ! D114  D(42,40,41,59)        -59.283          -DE/DX =    0.0                 !
 ! D115  D(43,40,41,44)        -51.1342         -DE/DX =    0.0                 !
 ! D116  D(43,40,41,45)         70.6238         -DE/DX =    0.0                 !
 ! D117  D(43,40,41,59)       -174.0587         -DE/DX =    0.0                 !
 ! D118  D(40,41,44,46)        -98.995          -DE/DX =    0.0                 !
 ! D119  D(40,41,44,52)         81.7424         -DE/DX =    0.0                 !
 ! D120  D(45,41,44,46)        139.6589         -DE/DX =    0.0                 !
 ! D121  D(45,41,44,52)        -39.6037         -DE/DX =    0.0                 !
 ! D122  D(59,41,44,46)         24.343          -DE/DX =    0.0                 !
 ! D123  D(59,41,44,52)       -154.9196         -DE/DX =    0.0                 !
 ! D124  D(41,44,46,47)       -178.3271         -DE/DX =    0.0                 !
 ! D125  D(41,44,46,48)          1.1315         -DE/DX =    0.0                 !
 ! D126  D(52,44,46,47)          0.9592         -DE/DX =    0.0                 !
 ! D127  D(52,44,46,48)       -179.5823         -DE/DX =    0.0                 !
 ! D128  D(41,44,52,51)        178.3272         -DE/DX =    0.0                 !
 ! D129  D(41,44,52,54)         -1.1805         -DE/DX =    0.0                 !
 ! D130  D(46,44,52,51)         -0.9629         -DE/DX =    0.0                 !
 ! D131  D(46,44,52,54)        179.5293         -DE/DX =    0.0                 !
 ! D132  D(44,46,47,49)          0.1243         -DE/DX =    0.0                 !
 ! D133  D(44,46,47,50)       -179.5507         -DE/DX =    0.0                 !
 ! D134  D(48,46,47,49)       -179.3319         -DE/DX =    0.0                 !
 ! D135  D(48,46,47,50)          0.9931         -DE/DX =    0.0                 !
 ! D136  D(46,47,49,51)         -1.2191         -DE/DX =    0.0                 !
 ! D137  D(46,47,49,55)        175.6347         -DE/DX =    0.0                 !
 ! D138  D(50,47,49,51)        178.4637         -DE/DX =    0.0                 !
 ! D139  D(50,47,49,55)         -4.6825         -DE/DX =    0.0                 !
 ! D140  D(47,49,51,52)          1.2155         -DE/DX =    0.0                 !
 ! D141  D(47,49,51,53)       -178.4248         -DE/DX =    0.0                 !
 ! D142  D(55,49,51,52)       -175.644          -DE/DX =    0.0                 !
 ! D143  D(55,49,51,53)          4.7157         -DE/DX =    0.0                 !
 ! D144  D(47,49,55,56)         30.8228         -DE/DX =    0.0                 !
 ! D145  D(47,49,55,57)        151.3168         -DE/DX =    0.0                 !
 ! D146  D(47,49,55,58)        -88.9714         -DE/DX =    0.0                 !
 ! D147  D(51,49,55,56)       -152.3704         -DE/DX =    0.0                 !
 ! D148  D(51,49,55,57)        -31.8764         -DE/DX =    0.0                 !
 ! D149  D(51,49,55,58)         87.8354         -DE/DX =    0.0                 !
 ! D150  D(49,51,52,44)         -0.1171         -DE/DX =    0.0                 !
 ! D151  D(49,51,52,54)        179.3886         -DE/DX =    0.0                 !
 ! D152  D(53,51,52,44)        179.5144         -DE/DX =    0.0                 !
 ! D153  D(53,51,52,54)         -0.9799         -DE/DX =    0.0                 !
 --------------------------------------------------------------------------------
 GradGradGradGradGradGradGradGradGradGradGradGradGradGradGradGradGradGrad

 Stoichiometry    C24H23O9S3(3-)
 Framework group  C1[X(C24H23O9S3)]
 Deg. of freedom   171
 Full point group                 C1      NOp   1
 Largest Abelian subgroup         C1      NOp   1
 Largest concise Abelian subgroup C1      NOp   1
                         Standard orientation:                         
 ---------------------------------------------------------------------
 Center     Atomic      Atomic             Coordinates (Angstroms)
 Number     Number       Type             X           Y           Z
 ---------------------------------------------------------------------
      1          6           0        0.979696    0.624064   -1.744591
      2          6           0        1.820876    0.313933   -0.491413
      3          1           0        0.395207    1.544831   -1.625623
      4          1           0        0.284821   -0.191056   -1.967940
      5          6           0        2.967706    1.314005   -0.338184
      6          1           0        2.271089   -0.675563   -0.641125
      7          6           0        4.299390    0.878290   -0.288129
      8          6           0        5.357324    1.780893   -0.151420
      9          1           0        4.509228   -0.188448   -0.355149
     10          6           0        5.109950    3.151791   -0.061261
     11          1           0        6.384359    1.432368   -0.097526
     12          6           0        3.787209    3.601404   -0.097813
     13          6           0        2.734754    2.695397   -0.234497
     14          1           0        3.597231    4.666192   -0.000559
     15          1           0        1.713134    3.071629   -0.258755
     16         16           0        6.488146    4.342485    0.040720
     17          8           0        6.795173    4.680354   -1.377552
     18          8           0        7.573302    3.590785    0.731606
     19          8           0        5.930612    5.480484    0.824926
     20          1           0        1.631892    0.756393   -2.615573
     21          6           0        1.002591    0.247248    0.824774
     22          6           0       -0.131691   -0.816548    0.991773
     23          1           0        1.730573    0.065816    1.625989
     24          1           0        0.584135    1.241194    1.032677
     25          6           0        0.320046   -2.229232    0.613730
     26          1           0       -0.297400   -0.849422    2.080737
     27          6           0       -0.074781   -2.881692   -0.563245
     28          6           0        0.332052   -4.190888   -0.840190
     29          1           0       -0.731875   -2.376213   -1.266725
     30          6           0        1.149084   -4.885947    0.051694
     31          1           0       -0.005915   -4.698279   -1.738704
     32          6           0        1.557271   -4.247325    1.226123
     33          6           0        1.146867   -2.943273    1.498054
     34          1           0        2.168965   -4.799073    1.933600
     35          1           0        1.456851   -2.469493    2.429488
     36         16           0        1.697279   -6.588045   -0.312015
     37          8           0        2.995048   -6.422780   -1.022503
     38          8           0        0.608145   -7.148613   -1.159866
     39          8           0        1.819588   -7.221085    1.031821
     40          6           0       -1.511225   -0.420192    0.403732
     41          6           0       -2.161499    0.788351    1.115538
     42          1           0       -1.453770   -0.209095   -0.669460
     43          1           0       -2.183536   -1.281472    0.507642
     44          6           0       -3.598296    1.066337    0.711010
     45          1           0       -2.125286    0.607332    2.200158
     46          6           0       -3.915079    2.057830   -0.228079
     47          6           0       -5.240089    2.334789   -0.572629
     48          1           0       -3.109167    2.627637   -0.689795
     49          6           0       -6.287107    1.624899    0.018597
     50          1           0       -5.479126    3.099013   -1.306077
     51          6           0       -5.985689    0.617668    0.939286
     52          6           0       -4.660163    0.345715    1.279212
     53          1           0       -6.802847    0.051566    1.376284
     54          1           0       -4.441432   -0.436115    2.006327
     55         16           0       -8.022183    2.061314   -0.337744
     56          8           0       -7.990857    2.584806   -1.731937
     57          8           0       -8.763773    0.779761   -0.173773
     58          8           0       -8.360091    3.089294    0.686728
     59          1           0       -1.561349    1.689034    0.936690
 ---------------------------------------------------------------------
 Rotational constants (GHZ):           0.0642770           0.0383042           0.0249527
 1\1\GINC-NID00479\FOpt\RB3LYP\6-31G(d)\C24H23O9S3(3-)\NMARIONI\04-Feb-
 2021\0\\#n B3LYP/6-31G(d) Opt geom=check guess=read\\sps_iso\\-3,1\C,-
 1.224294159,-3.9453734308,2.4946984394\C,0.1719604814,-3.6943998733,1.
 8932793711\H,-1.7604144484,-3.0074860019,2.6858396228\H,-1.1570466776,
 -4.4948068558,3.4384973004\C,0.0669882037,-3.1754513951,0.4585271988\H
 ,0.6846301391,-4.6637248638,1.8510035702\C,0.6781651638,-3.8615828751,
 -0.6004448989\C,0.5880132555,-3.4007299197,-1.9165348623\H,1.236690827
 3,-4.772209502,-0.3876996367\C,-0.1207641447,-2.2345383315,-2.21032702
 98\H,1.0783312546,-3.9304932566,-2.7277775823\C,-0.7259617243,-1.53255
 94121,-1.1643389841\C,-0.6325986892,-1.9975643697,0.1480043211\H,-1.25
 38133103,-0.6115448468,-1.3933156727\H,-1.1119803621,-1.4310471895,0.9
 449347341\S,-0.3077932712,-1.6671784663,-3.9338992815\O,-1.557592482,-
 2.3241973529,-4.4095522284\O,0.925979995,-2.1495478935,-4.6158542029\O
 ,-0.4106559164,-0.1847306419,-3.8215002953\H,-1.8332856932,-4.53968905
 21,1.8037570181\C,1.0653772313,-2.7431833722,2.7319570509\C,1.46699336
 94,-3.1278383467,4.1937671166\H,1.9981073169,-2.6247451294,2.165556622
 1\H,0.6057876638,-1.745765388,2.7458108323\C,2.0164225366,-4.552268199
 4,4.302334452\H,2.325876072,-2.4713040586,4.4074656837\C,1.3011871647,
 -5.6195188775,4.8647199663\C,1.866935654,-6.8934750841,4.9794795694\H,
 0.2962174686,-5.4551187801,5.2457354118\C,3.1653384302,-7.138493813,4.
 5320162173\H,1.3163986788,-7.7047544823,5.4460934839\C,3.8891904946,-6
 .0870987595,3.962503436\C,3.3211483692,-4.8189426426,3.8527893321\H,4.
 9099879381,-6.2712651899,3.6412938778\H,3.9088408649,-4.0059937596,3.4
 263407919\S,3.9028597493,-8.8024555028,4.663282538\O,3.5728184509,-9.4
 644572139,3.3713313464\O,3.2283044242,-9.4081067126,5.845426057\O,5.35
 72258672,-8.5369860471,4.8528619162\C,0.4273039699,-2.7709345447,5.288
 1480464\C,0.2048536389,-1.2502428209,5.4558199403\H,-0.5399868844,-3.2
 515607008,5.1066254599\H,0.7902730183,-3.1715141273,6.2433401367\C,-0.
 6385066961,-0.8600329077,6.6565627145\H,1.1897307391,-0.7671014863,5.5
 399088976\C,-2.002039213,-0.5613184493,6.5267690501\C,-2.7674337727,-0
 .1692145898,7.6274505043\H,-2.4684690165,-0.6291226822,5.5443224081\C,
 -2.1843872757,-0.0630385497,8.8917771438\H,-3.8249081037,0.0539517904,
 7.5222477614\C,-0.8314963931,-0.3799981515,9.0409665483\C,-0.072346789
 5,-0.7711346845,7.9376838589\H,-0.3899691441,-0.3205192565,10.03127091
 98\H,0.9839930867,-1.0055204607,8.0680925316\S,-3.1482921159,0.5616814
 838,10.3090063795\O,-4.5466601951,0.1393101533,10.0175120617\O,-2.5341
 109636,-0.1035348556,11.4920067825\O,-2.9419670598,2.0369795191,10.271
 6729768\H,-0.2581570163,-0.8425077897,4.5487532751\\Version=ES64L-G16R
 evA.03\State=1-A\HF=-2799.9036819\RMSD=2.650e-09\RMSF=1.681e-06\Dipole
 =0.9291508,0.9725452,0.3256597\Quadrupole=130.8405735,39.4885989,-170.
 3291724,129.8953275,55.3909848,-28.5317393\PG=C01 [X(C24H23O9S3)]\\@


 LIFE IS A CONTINUAL STRUGGLE AGAINST THE TENDENCY TO PRODUCE ENTROPY.
 Job cpu time:       0 days  0 hours  7 minutes 45.7 seconds.
 Elapsed time:       0 days  0 hours  0 minutes 19.9 seconds.
 File lengths (MBytes):  RWF=    189 Int=      0 D2E=      0 Chk=     29 Scr=      1
 Normal termination of Gaussian 16 at Thu Feb  4 10:44:42 2021.
