 Entering Gaussian System, Link 0=g16
 Input=sps_syn.com
 Output=sps_syn.log
 Initial command:
 /opt/apps/gaussian/16rA.03/g16/l1.exe "/tmp/Gau-5007.inp" -scrdir="/tmp/"
 Entering Link 1 = /opt/apps/gaussian/16rA.03/g16/l1.exe PID=      5008.
  
 Copyright (c) 1988,1990,1992,1993,1995,1998,2003,2009,2016,
            Gaussian, Inc.  All Rights Reserved.
  
 This is part of the Gaussian(R) 16 program.  It is based on
 the Gaussian(R) 09 system (copyright 2009, Gaussian, Inc.),
 the Gaussian(R) 03 system (copyright 2003, Gaussian, Inc.),
 the Gaussian(R) 98 system (copyright 1998, Gaussian, Inc.),
 the Gaussian(R) 94 system (copyright 1995, Gaussian, Inc.),
 the Gaussian 92(TM) system (copyright 1992, Gaussian, Inc.),
 the Gaussian 90(TM) system (copyright 1990, Gaussian, Inc.),
 the Gaussian 88(TM) system (copyright 1988, Gaussian, Inc.),
 the Gaussian 86(TM) system (copyright 1986, Carnegie Mellon
 University), and the Gaussian 82(TM) system (copyright 1983,
 Carnegie Mellon University). Gaussian is a federally registered
 trademark of Gaussian, Inc.
  
 This software contains proprietary and confidential information,
 including trade secrets, belonging to Gaussian, Inc.
  
 This software is provided under written license and may be
 used, copied, transmitted, or stored only in accord with that
 written license.
  
 The following legend is applicable only to US Government
 contracts under FAR:
  
                    RESTRICTED RIGHTS LEGEND
  
 Use, reproduction and disclosure by the US Government is
 subject to restrictions as set forth in subparagraphs (a)
 and (c) of the Commercial Computer Software - Restricted
 Rights clause in FAR 52.227-19.
  
 Gaussian, Inc.
 340 Quinnipiac St., Bldg. 40, Wallingford CT 06492
  
  
 ---------------------------------------------------------------
 Warning -- This program may not be used in any manner that
 competes with the business of Gaussian, Inc. or will provide
 assistance to any competitor of Gaussian, Inc.  The licensee
 of this program is prohibited from giving any competitor of
 Gaussian, Inc. access to this program.  By using this program,
 the user acknowledges that Gaussian, Inc. is engaged in the
 business of creating and licensing software in the field of
 computational chemistry and represents and warrants to the
 licensee that it is not a competitor of Gaussian, Inc. and that
 it will not use this program in any manner prohibited above.
 ---------------------------------------------------------------
  

 Cite this work as:
 Gaussian 16, Revision A.03,
 M. J. Frisch, G. W. Trucks, H. B. Schlegel, G. E. Scuseria, 
 M. A. Robb, J. R. Cheeseman, G. Scalmani, V. Barone, 
 G. A. Petersson, H. Nakatsuji, X. Li, M. Caricato, A. V. Marenich, 
 J. Bloino, B. G. Janesko, R. Gomperts, B. Mennucci, H. P. Hratchian, 
 J. V. Ortiz, A. F. Izmaylov, J. L. Sonnenberg, D. Williams-Young, 
 F. Ding, F. Lipparini, F. Egidi, J. Goings, B. Peng, A. Petrone, 
 T. Henderson, D. Ranasinghe, V. G. Zakrzewski, J. Gao, N. Rega, 
 G. Zheng, W. Liang, M. Hada, M. Ehara, K. Toyota, R. Fukuda, 
 J. Hasegawa, M. Ishida, T. Nakajima, Y. Honda, O. Kitao, H. Nakai, 
 T. Vreven, K. Throssell, J. A. Montgomery, Jr., J. E. Peralta, 
 F. Ogliaro, M. J. Bearpark, J. J. Heyd, E. N. Brothers, K. N. Kudin, 
 V. N. Staroverov, T. A. Keith, R. Kobayashi, J. Normand, 
 K. Raghavachari, A. P. Rendell, J. C. Burant, S. S. Iyengar, 
 J. Tomasi, M. Cossi, J. M. Millam, M. Klene, C. Adamo, R. Cammi, 
 J. W. Ochterski, R. L. Martin, K. Morokuma, O. Farkas, 
 J. B. Foresman, and D. J. Fox, Gaussian, Inc., Wallingford CT, 2016.
 
 ******************************************
 Gaussian 16:  ES64L-G16RevA.03 25-Dec-2016
                 4-Feb-2021 
 ******************************************
 %NProcShared=24
 Will use up to   24 processors via shared memory.
 %mem=48GB
 %Chk=sps_syn.chk
 --------------------------------------------
 #n B3LYP/6-311+g** Opt geom=check guess=read
 --------------------------------------------
 1/18=20,19=15,26=3,29=2,38=1/1,3;
 2/9=110,12=2,40=1/2;
 3/5=4,6=6,7=111,11=2,14=-4,25=1,30=1,71=1,74=-5,116=-2/1,2,3;
 4/5=1/1;
 5/5=2,38=6/2;
 6/7=2,8=2,9=2,10=2,28=1/1;
 7//1,2,3,16;
 1/18=20,19=15,26=3/3(2);
 2/9=110/2;
 99//99;
 2/9=110/2;
 3/5=4,6=6,7=111,11=2,14=-2,25=1,30=1,71=1,74=-5/1,2,3;
 4/5=5,16=3,69=1/1;
 5/5=2,38=5/2;
 7//1,2,3,16;
 1/18=20,19=15,26=3/3(-5);
 2/9=110/2;
 6/7=2,8=2,9=2,10=2,19=2,28=1/1;
 99/9=1/99;
 -------
 sps_syn
 -------
 Structure from the checkpoint file:  "sps_syn.chk"
 Charge = -3 Multiplicity = 1
 Redundant internal coordinates found in file.  (old form).
 C,0,-2.2066557216,-0.2941329516,-0.0891047245
 C,0,-1.0959779523,-1.270796039,0.342071859
 H,0,-1.7974217076,0.548897943,-0.6576485417
 H,0,-2.7352334298,0.1248288098,0.7708858412
 C,0,-0.470844937,-1.9621607208,-0.8706681015
 H,0,-1.563819901,-2.0589568948,0.9482769985
 C,0,-0.4836900152,-3.3588950279,-0.9905633131
 C,0,0.082179779,-4.0025973719,-2.0941867289
 H,0,-0.9437870908,-3.953371937,-0.2017495145
 C,0,0.680010917,-3.2607306185,-3.1142413764
 H,0,0.0815439941,-5.0858786013,-2.1698086158
 C,0,0.7116030583,-1.8678313428,-3.0041413671
 C,0,0.1443389611,-1.2306274529,-1.9000173662
 H,0,1.2008049566,-1.2956890547,-3.7868605892
 H,0,0.1824884293,-0.1444181938,-1.8381812719
 S,0,1.3543399505,-4.0869838685,-4.5941186066
 O,0,0.2135603761,-4.1268034736,-5.551583016
 O,0,1.7795823011,-5.4282156025,-4.1041638381
 O,0,2.4746313886,-3.2044846066,-5.026457896
 H,0,-2.9343233192,-0.806455591,-0.7297350907
 C,0,0.0128318775,-0.612443272,1.2048520154
 C,0,-0.3203811565,-0.070493922,2.6330339696
 H,0,0.8015764449,-1.3667280384,1.3330296209
 H,0,0.4678117546,0.2032397963,0.6274592537
 C,0,-0.9862116508,1.310882297,2.6441297518
 H,0,0.6764447414,0.0976090004,3.0722112773
 C,0,-2.3209847551,1.5457612156,3.0042228895
 C,0,-2.8592972811,2.8370478162,3.0058115998
 H,0,-2.9590944513,0.7131798875,3.2913167237
 C,0,-2.0766201396,3.9352879934,2.6488195523
 H,0,-3.89831471,3.0040809395,3.2733843693
 C,0,-0.7461044551,3.7185184558,2.2804985019
 C,0,-0.2152199856,2.4300557739,2.2855459454
 H,0,-0.1422441392,4.5707269938,1.9832319566
 H,0,0.8279923701,2.28343055,2.0052711029
 S,0,-2.7445291938,5.6309533505,2.7285218989
 O,0,-4.2040039255,5.463076215,2.4842403905
 O,0,-2.0161895519,6.3580212318,1.650835323
 O,0,-2.4087630302,6.0973905919,4.1027583329
 C,0,-0.9842203197,-1.1408417839,3.5284792265
 C,0,-0.8736978864,-0.8336212606,5.0392319083
 H,0,-0.4920553952,-2.1033057064,3.3323661542
 H,0,-2.0381664531,-1.288261066,3.2602338397
 C,0,-1.3709331448,-1.9360979535,5.956541428
 H,0,0.1843053717,-0.6327083096,5.2641398218
 C,0,-0.5716165634,-3.0543433123,6.2414319702
 C,0,-1.001517486,-4.0502436744,7.1188451732
 H,0,0.4140259038,-3.1325675809,5.7825822965
 C,0,-2.2501844048,-3.9549276977,7.7394542739
 H,0,-0.3641790074,-4.8955408467,7.360461314
 C,0,-3.0606537157,-2.8530296257,7.4591675262
 C,0,-2.6245715176,-1.859274838,6.5794295163
 H,0,-4.0185234265,-2.770246018,7.9638368254
 H,0,-3.2589123183,-0.9944789495,6.3881826897
 S,0,-2.8180579702,-5.261432637,8.8797339532
 O,0,-3.5167018821,-6.2467790778,8.0092566142
 O,0,-1.5610697143,-5.7782500529,9.4916765566
 O,0,-3.7168895173,-4.5485093633,9.8307365628
 H,0,-1.4114093526,0.0961654742,5.2570331336
 Recover connectivity data from disk.

 GradGradGradGradGradGradGradGradGradGradGradGradGradGradGradGradGradGrad
 Berny optimization.
 Initialization pass.
                           ----------------------------
                           !    Initial Parameters    !
                           ! (Angstroms and Degrees)  !
 --------------------------                            --------------------------
 ! Name  Definition              Value          Derivative Info.                !
 --------------------------------------------------------------------------------
 ! R1    R(1,2)                  1.5406         estimate D2E/DX2                !
 ! R2    R(1,3)                  1.0961         estimate D2E/DX2                !
 ! R3    R(1,4)                  1.0929         estimate D2E/DX2                !
 ! R4    R(1,20)                 1.0965         estimate D2E/DX2                !
 ! R5    R(2,5)                  1.5295         estimate D2E/DX2                !
 ! R6    R(2,6)                  1.0989         estimate D2E/DX2                !
 ! R7    R(2,21)                 1.5515         estimate D2E/DX2                !
 ! R8    R(5,7)                  1.4019         estimate D2E/DX2                !
 ! R9    R(5,13)                 1.4047         estimate D2E/DX2                !
 ! R10   R(7,8)                  1.3973         estimate D2E/DX2                !
 ! R11   R(7,9)                  1.0896         estimate D2E/DX2                !
 ! R12   R(8,10)                 1.3958         estimate D2E/DX2                !
 ! R13   R(8,11)                 1.0859         estimate D2E/DX2                !
 ! R14   R(10,12)                1.3976         estimate D2E/DX2                !
 ! R15   R(10,16)                1.8241         estimate D2E/DX2                !
 ! R16   R(12,13)                1.3953         estimate D2E/DX2                !
 ! R17   R(12,14)                1.086          estimate D2E/DX2                !
 ! R18   R(13,15)                1.0886         estimate D2E/DX2                !
 ! R19   R(16,17)                1.4899         estimate D2E/DX2                !
 ! R20   R(16,18)                1.4899         estimate D2E/DX2                !
 ! R21   R(16,19)                1.4902         estimate D2E/DX2                !
 ! R22   R(21,22)                1.5635         estimate D2E/DX2                !
 ! R23   R(21,23)                1.0989         estimate D2E/DX2                !
 ! R24   R(21,24)                1.0981         estimate D2E/DX2                !
 ! R25   R(22,25)                1.5335         estimate D2E/DX2                !
 ! R26   R(22,26)                1.1022         estimate D2E/DX2                !
 ! R27   R(22,40)                1.5454         estimate D2E/DX2                !
 ! R28   R(25,27)                1.4023         estimate D2E/DX2                !
 ! R29   R(25,33)                1.4055         estimate D2E/DX2                !
 ! R30   R(27,28)                1.399          estimate D2E/DX2                !
 ! R31   R(27,29)                1.0876         estimate D2E/DX2                !
 ! R32   R(28,30)                1.395          estimate D2E/DX2                !
 ! R33   R(28,31)                1.0858         estimate D2E/DX2                !
 ! R34   R(30,32)                1.3975         estimate D2E/DX2                !
 ! R35   R(30,36)                1.8242         estimate D2E/DX2                !
 ! R36   R(32,33)                1.3936         estimate D2E/DX2                !
 ! R37   R(32,34)                1.0859         estimate D2E/DX2                !
 ! R38   R(33,35)                1.0901         estimate D2E/DX2                !
 ! R39   R(36,37)                1.4893         estimate D2E/DX2                !
 ! R40   R(36,38)                1.4901         estimate D2E/DX2                !
 ! R41   R(36,39)                1.4896         estimate D2E/DX2                !
 ! R42   R(40,41)                1.5456         estimate D2E/DX2                !
 ! R43   R(40,42)                1.0986         estimate D2E/DX2                !
 ! R44   R(40,43)                1.0975         estimate D2E/DX2                !
 ! R45   R(41,44)                1.5179         estimate D2E/DX2                !
 ! R46   R(41,45)                1.1001         estimate D2E/DX2                !
 ! R47   R(41,59)                1.0959         estimate D2E/DX2                !
 ! R48   R(44,46)                1.4038         estimate D2E/DX2                !
 ! R49   R(44,52)                1.402          estimate D2E/DX2                !
 ! R50   R(46,47)                1.3952         estimate D2E/DX2                !
 ! R51   R(46,48)                1.09           estimate D2E/DX2                !
 ! R52   R(47,49)                1.3976         estimate D2E/DX2                !
 ! R53   R(47,50)                1.0859         estimate D2E/DX2                !
 ! R54   R(49,51)                1.3963         estimate D2E/DX2                !
 ! R55   R(49,55)                1.8247         estimate D2E/DX2                !
 ! R56   R(51,52)                1.397          estimate D2E/DX2                !
 ! R57   R(51,53)                1.0858         estimate D2E/DX2                !
 ! R58   R(52,54)                1.0894         estimate D2E/DX2                !
 ! R59   R(55,56)                1.4889         estimate D2E/DX2                !
 ! R60   R(55,57)                1.4905         estimate D2E/DX2                !
 ! R61   R(55,58)                1.4902         estimate D2E/DX2                !
 ! A1    A(2,1,3)              111.3211         estimate D2E/DX2                !
 ! A2    A(2,1,4)              111.806          estimate D2E/DX2                !
 ! A3    A(2,1,20)             110.2272         estimate D2E/DX2                !
 ! A4    A(3,1,4)              107.0904         estimate D2E/DX2                !
 ! A5    A(3,1,20)             107.7023         estimate D2E/DX2                !
 ! A6    A(4,1,20)             108.5343         estimate D2E/DX2                !
 ! A7    A(1,2,5)              111.0571         estimate D2E/DX2                !
 ! A8    A(1,2,6)              107.5871         estimate D2E/DX2                !
 ! A9    A(1,2,21)             113.6944         estimate D2E/DX2                !
 ! A10   A(5,2,6)              106.6904         estimate D2E/DX2                !
 ! A11   A(5,2,21)             109.9145         estimate D2E/DX2                !
 ! A12   A(6,2,21)             107.5676         estimate D2E/DX2                !
 ! A13   A(2,5,7)              120.957          estimate D2E/DX2                !
 ! A14   A(2,5,13)             121.6421         estimate D2E/DX2                !
 ! A15   A(7,5,13)             117.3995         estimate D2E/DX2                !
 ! A16   A(5,7,8)              121.5197         estimate D2E/DX2                !
 ! A17   A(5,7,9)              119.0457         estimate D2E/DX2                !
 ! A18   A(8,7,9)              119.4343         estimate D2E/DX2                !
 ! A19   A(7,8,10)             120.3842         estimate D2E/DX2                !
 ! A20   A(7,8,11)             120.9513         estimate D2E/DX2                !
 ! A21   A(10,8,11)            118.657          estimate D2E/DX2                !
 ! A22   A(8,10,12)            118.8043         estimate D2E/DX2                !
 ! A23   A(8,10,16)            120.695          estimate D2E/DX2                !
 ! A24   A(12,10,16)           120.4634         estimate D2E/DX2                !
 ! A25   A(10,12,13)           120.5497         estimate D2E/DX2                !
 ! A26   A(10,12,14)           118.5864         estimate D2E/DX2                !
 ! A27   A(13,12,14)           120.8562         estimate D2E/DX2                !
 ! A28   A(5,13,12)            121.3382         estimate D2E/DX2                !
 ! A29   A(5,13,15)            119.5605         estimate D2E/DX2                !
 ! A30   A(12,13,15)           119.1013         estimate D2E/DX2                !
 ! A31   A(10,16,17)           104.5024         estimate D2E/DX2                !
 ! A32   A(10,16,18)           104.2694         estimate D2E/DX2                !
 ! A33   A(10,16,19)           104.1837         estimate D2E/DX2                !
 ! A34   A(17,16,18)           113.9425         estimate D2E/DX2                !
 ! A35   A(17,16,19)           113.8911         estimate D2E/DX2                !
 ! A36   A(18,16,19)           114.4527         estimate D2E/DX2                !
 ! A37   A(2,21,22)            120.1812         estimate D2E/DX2                !
 ! A38   A(2,21,23)            106.6524         estimate D2E/DX2                !
 ! A39   A(2,21,24)            108.5974         estimate D2E/DX2                !
 ! A40   A(22,21,23)           106.5207         estimate D2E/DX2                !
 ! A41   A(22,21,24)           108.1283         estimate D2E/DX2                !
 ! A42   A(23,21,24)           105.8922         estimate D2E/DX2                !
 ! A43   A(21,22,25)           114.2921         estimate D2E/DX2                !
 ! A44   A(21,22,26)           102.9499         estimate D2E/DX2                !
 ! A45   A(21,22,40)           112.3812         estimate D2E/DX2                !
 ! A46   A(25,22,26)           104.6204         estimate D2E/DX2                !
 ! A47   A(25,22,40)           115.6709         estimate D2E/DX2                !
 ! A48   A(26,22,40)           105.2636         estimate D2E/DX2                !
 ! A49   A(22,25,27)           124.4728         estimate D2E/DX2                !
 ! A50   A(22,25,33)           118.5059         estimate D2E/DX2                !
 ! A51   A(27,25,33)           117.0175         estimate D2E/DX2                !
 ! A52   A(25,27,28)           121.409          estimate D2E/DX2                !
 ! A53   A(25,27,29)           119.8703         estimate D2E/DX2                !
 ! A54   A(28,27,29)           118.7206         estimate D2E/DX2                !
 ! A55   A(27,28,30)           120.6945         estimate D2E/DX2                !
 ! A56   A(27,28,31)           120.6941         estimate D2E/DX2                !
 ! A57   A(30,28,31)           118.6074         estimate D2E/DX2                !
 ! A58   A(28,30,32)           118.6522         estimate D2E/DX2                !
 ! A59   A(28,30,36)           121.0089         estimate D2E/DX2                !
 ! A60   A(32,30,36)           120.2846         estimate D2E/DX2                !
 ! A61   A(30,32,33)           120.3425         estimate D2E/DX2                !
 ! A62   A(30,32,34)           118.6754         estimate D2E/DX2                !
 ! A63   A(33,32,34)           120.9797         estimate D2E/DX2                !
 ! A64   A(25,33,32)           121.8814         estimate D2E/DX2                !
 ! A65   A(25,33,35)           118.9096         estimate D2E/DX2                !
 ! A66   A(32,33,35)           119.209          estimate D2E/DX2                !
 ! A67   A(30,36,37)           104.292          estimate D2E/DX2                !
 ! A68   A(30,36,38)           104.0626         estimate D2E/DX2                !
 ! A69   A(30,36,39)           104.4093         estimate D2E/DX2                !
 ! A70   A(37,36,38)           114.5425         estimate D2E/DX2                !
 ! A71   A(37,36,39)           114.0496         estimate D2E/DX2                !
 ! A72   A(38,36,39)           113.8444         estimate D2E/DX2                !
 ! A73   A(22,40,41)           113.4518         estimate D2E/DX2                !
 ! A74   A(22,40,42)           108.1133         estimate D2E/DX2                !
 ! A75   A(22,40,43)           111.342          estimate D2E/DX2                !
 ! A76   A(41,40,42)           108.4558         estimate D2E/DX2                !
 ! A77   A(41,40,43)           109.5281         estimate D2E/DX2                !
 ! A78   A(42,40,43)           105.5986         estimate D2E/DX2                !
 ! A79   A(40,41,44)           115.017          estimate D2E/DX2                !
 ! A80   A(40,41,45)           107.7515         estimate D2E/DX2                !
 ! A81   A(40,41,59)           109.1353         estimate D2E/DX2                !
 ! A82   A(44,41,45)           108.9123         estimate D2E/DX2                !
 ! A83   A(44,41,59)           109.5949         estimate D2E/DX2                !
 ! A84   A(45,41,59)           106.0384         estimate D2E/DX2                !
 ! A85   A(41,44,46)           120.977          estimate D2E/DX2                !
 ! A86   A(41,44,52)           121.4403         estimate D2E/DX2                !
 ! A87   A(46,44,52)           117.5583         estimate D2E/DX2                !
 ! A88   A(44,46,47)           121.3868         estimate D2E/DX2                !
 ! A89   A(44,46,48)           119.1186         estimate D2E/DX2                !
 ! A90   A(47,46,48)           119.4812         estimate D2E/DX2                !
 ! A91   A(46,47,49)           120.3888         estimate D2E/DX2                !
 ! A92   A(46,47,50)           120.9812         estimate D2E/DX2                !
 ! A93   A(49,47,50)           118.5981         estimate D2E/DX2                !
 ! A94   A(47,49,51)           118.8986         estimate D2E/DX2                !
 ! A95   A(47,49,55)           120.4434         estimate D2E/DX2                !
 ! A96   A(51,49,55)           120.6532         estimate D2E/DX2                !
 ! A97   A(49,51,52)           120.4368         estimate D2E/DX2                !
 ! A98   A(49,51,53)           118.614          estimate D2E/DX2                !
 ! A99   A(52,51,53)           120.9179         estimate D2E/DX2                !
 ! A100  A(44,52,51)           121.3278         estimate D2E/DX2                !
 ! A101  A(44,52,54)           119.0894         estimate D2E/DX2                !
 ! A102  A(51,52,54)           119.5683         estimate D2E/DX2                !
 ! A103  A(49,55,56)           104.7459         estimate D2E/DX2                !
 ! A104  A(49,55,57)           104.0266         estimate D2E/DX2                !
 ! A105  A(49,55,58)           104.1211         estimate D2E/DX2                !
 ! A106  A(56,55,57)           113.972          estimate D2E/DX2                !
 ! A107  A(56,55,58)           113.9981         estimate D2E/DX2                !
 ! A108  A(57,55,58)           114.3653         estimate D2E/DX2                !
 ! D1    D(3,1,2,5)            -66.4859         estimate D2E/DX2                !
 ! D2    D(3,1,2,6)            177.0986         estimate D2E/DX2                !
 ! D3    D(3,1,2,21)            58.0938         estimate D2E/DX2                !
 ! D4    D(4,1,2,5)            173.7819         estimate D2E/DX2                !
 ! D5    D(4,1,2,6)             57.3665         estimate D2E/DX2                !
 ! D6    D(4,1,2,21)           -61.6383         estimate D2E/DX2                !
 ! D7    D(20,1,2,5)            52.9652         estimate D2E/DX2                !
 ! D8    D(20,1,2,6)           -63.4502         estimate D2E/DX2                !
 ! D9    D(20,1,2,21)          177.5449         estimate D2E/DX2                !
 ! D10   D(1,2,5,7)           -121.3403         estimate D2E/DX2                !
 ! D11   D(1,2,5,13)            59.1004         estimate D2E/DX2                !
 ! D12   D(6,2,5,7)             -4.3748         estimate D2E/DX2                !
 ! D13   D(6,2,5,13)           176.0659         estimate D2E/DX2                !
 ! D14   D(21,2,5,7)           111.9699         estimate D2E/DX2                !
 ! D15   D(21,2,5,13)          -67.5894         estimate D2E/DX2                !
 ! D16   D(1,2,21,22)           66.1735         estimate D2E/DX2                !
 ! D17   D(1,2,21,23)         -172.6746         estimate D2E/DX2                !
 ! D18   D(1,2,21,24)          -58.9584         estimate D2E/DX2                !
 ! D19   D(5,2,21,22)         -168.6345         estimate D2E/DX2                !
 ! D20   D(5,2,21,23)          -47.4826         estimate D2E/DX2                !
 ! D21   D(5,2,21,24)           66.2336         estimate D2E/DX2                !
 ! D22   D(6,2,21,22)          -52.8425         estimate D2E/DX2                !
 ! D23   D(6,2,21,23)           68.3094         estimate D2E/DX2                !
 ! D24   D(6,2,21,24)         -177.9744         estimate D2E/DX2                !
 ! D25   D(2,5,7,8)            179.9073         estimate D2E/DX2                !
 ! D26   D(2,5,7,9)             -0.2735         estimate D2E/DX2                !
 ! D27   D(13,5,7,8)            -0.5153         estimate D2E/DX2                !
 ! D28   D(13,5,7,9)           179.3039         estimate D2E/DX2                !
 ! D29   D(2,5,13,12)         -179.9419         estimate D2E/DX2                !
 ! D30   D(2,5,13,15)            0.1373         estimate D2E/DX2                !
 ! D31   D(7,5,13,12)            0.4838         estimate D2E/DX2                !
 ! D32   D(7,5,13,15)         -179.437          estimate D2E/DX2                !
 ! D33   D(5,7,8,10)            -0.003          estimate D2E/DX2                !
 ! D34   D(5,7,8,11)           178.9858         estimate D2E/DX2                !
 ! D35   D(9,7,8,10)          -179.8215         estimate D2E/DX2                !
 ! D36   D(9,7,8,11)            -0.8327         estimate D2E/DX2                !
 ! D37   D(7,8,10,12)            0.5616         estimate D2E/DX2                !
 ! D38   D(7,8,10,16)         -177.2275         estimate D2E/DX2                !
 ! D39   D(11,8,10,12)        -178.4501         estimate D2E/DX2                !
 ! D40   D(11,8,10,16)           3.7607         estimate D2E/DX2                !
 ! D41   D(8,10,12,13)          -0.5928         estimate D2E/DX2                !
 ! D42   D(8,10,12,14)         178.4007         estimate D2E/DX2                !
 ! D43   D(16,10,12,13)        177.2017         estimate D2E/DX2                !
 ! D44   D(16,10,12,14)         -3.8049         estimate D2E/DX2                !
 ! D45   D(8,10,16,17)          89.9767         estimate D2E/DX2                !
 ! D46   D(8,10,16,18)         -29.9111         estimate D2E/DX2                !
 ! D47   D(8,10,16,19)        -150.231          estimate D2E/DX2                !
 ! D48   D(12,10,16,17)        -87.7757         estimate D2E/DX2                !
 ! D49   D(12,10,16,18)        152.3365         estimate D2E/DX2                !
 ! D50   D(12,10,16,19)         32.0166         estimate D2E/DX2                !
 ! D51   D(10,12,13,5)           0.0656         estimate D2E/DX2                !
 ! D52   D(10,12,13,15)        179.9867         estimate D2E/DX2                !
 ! D53   D(14,12,13,5)        -178.9048         estimate D2E/DX2                !
 ! D54   D(14,12,13,15)          1.0163         estimate D2E/DX2                !
 ! D55   D(2,21,22,25)         -80.4395         estimate D2E/DX2                !
 ! D56   D(2,21,22,26)         166.7336         estimate D2E/DX2                !
 ! D57   D(2,21,22,40)          53.9765         estimate D2E/DX2                !
 ! D58   D(23,21,22,25)        158.3438         estimate D2E/DX2                !
 ! D59   D(23,21,22,26)         45.5169         estimate D2E/DX2                !
 ! D60   D(23,21,22,40)        -67.2402         estimate D2E/DX2                !
 ! D61   D(24,21,22,25)         44.9128         estimate D2E/DX2                !
 ! D62   D(24,21,22,26)        -67.9141         estimate D2E/DX2                !
 ! D63   D(24,21,22,40)        179.3288         estimate D2E/DX2                !
 ! D64   D(21,22,25,27)        110.4583         estimate D2E/DX2                !
 ! D65   D(21,22,25,33)        -70.2789         estimate D2E/DX2                !
 ! D66   D(26,22,25,27)       -137.7128         estimate D2E/DX2                !
 ! D67   D(26,22,25,33)         41.55           estimate D2E/DX2                !
 ! D68   D(40,22,25,27)        -22.42           estimate D2E/DX2                !
 ! D69   D(40,22,25,33)        156.8428         estimate D2E/DX2                !
 ! D70   D(21,22,40,41)        159.5792         estimate D2E/DX2                !
 ! D71   D(21,22,40,42)         39.2496         estimate D2E/DX2                !
 ! D72   D(21,22,40,43)        -76.3168         estimate D2E/DX2                !
 ! D73   D(25,22,40,41)        -66.6681         estimate D2E/DX2                !
 ! D74   D(25,22,40,42)        173.0023         estimate D2E/DX2                !
 ! D75   D(25,22,40,43)         57.4359         estimate D2E/DX2                !
 ! D76   D(26,22,40,41)         48.2585         estimate D2E/DX2                !
 ! D77   D(26,22,40,42)        -72.0711         estimate D2E/DX2                !
 ! D78   D(26,22,40,43)        172.3625         estimate D2E/DX2                !
 ! D79   D(22,25,27,28)        179.2748         estimate D2E/DX2                !
 ! D80   D(22,25,27,29)         -0.6369         estimate D2E/DX2                !
 ! D81   D(33,25,27,28)          0.002          estimate D2E/DX2                !
 ! D82   D(33,25,27,29)       -179.9098         estimate D2E/DX2                !
 ! D83   D(22,25,33,32)       -179.5422         estimate D2E/DX2                !
 ! D84   D(22,25,33,35)          0.3617         estimate D2E/DX2                !
 ! D85   D(27,25,33,32)         -0.2244         estimate D2E/DX2                !
 ! D86   D(27,25,33,35)        179.6795         estimate D2E/DX2                !
 ! D87   D(25,27,28,30)         -0.115          estimate D2E/DX2                !
 ! D88   D(25,27,28,31)        179.1437         estimate D2E/DX2                !
 ! D89   D(29,27,28,30)        179.7978         estimate D2E/DX2                !
 ! D90   D(29,27,28,31)         -0.9435         estimate D2E/DX2                !
 ! D91   D(27,28,30,32)          0.4377         estimate D2E/DX2                !
 ! D92   D(27,28,30,36)       -176.8898         estimate D2E/DX2                !
 ! D93   D(31,28,30,32)       -178.8362         estimate D2E/DX2                !
 ! D94   D(31,28,30,36)          3.8363         estimate D2E/DX2                !
 ! D95   D(28,30,32,33)         -0.6543         estimate D2E/DX2                !
 ! D96   D(28,30,32,34)        178.7801         estimate D2E/DX2                !
 ! D97   D(36,30,32,33)        176.6932         estimate D2E/DX2                !
 ! D98   D(36,30,32,34)         -3.8724         estimate D2E/DX2                !
 ! D99   D(28,30,36,37)        -29.377          estimate D2E/DX2                !
 ! D100  D(28,30,36,38)       -149.7541         estimate D2E/DX2                !
 ! D101  D(28,30,36,39)         90.6            estimate D2E/DX2                !
 ! D102  D(32,30,36,37)        153.3388         estimate D2E/DX2                !
 ! D103  D(32,30,36,38)         32.9618         estimate D2E/DX2                !
 ! D104  D(32,30,36,39)        -86.6841         estimate D2E/DX2                !
 ! D105  D(30,32,33,25)          0.5605         estimate D2E/DX2                !
 ! D106  D(30,32,33,35)       -179.3431         estimate D2E/DX2                !
 ! D107  D(34,32,33,25)       -178.8607         estimate D2E/DX2                !
 ! D108  D(34,32,33,35)          1.2357         estimate D2E/DX2                !
 ! D109  D(22,40,41,44)       -173.2838         estimate D2E/DX2                !
 ! D110  D(22,40,41,45)        -51.6187         estimate D2E/DX2                !
 ! D111  D(22,40,41,59)         63.0982         estimate D2E/DX2                !
 ! D112  D(42,40,41,44)        -53.1483         estimate D2E/DX2                !
 ! D113  D(42,40,41,45)         68.5167         estimate D2E/DX2                !
 ! D114  D(42,40,41,59)       -176.7664         estimate D2E/DX2                !
 ! D115  D(43,40,41,44)         61.6322         estimate D2E/DX2                !
 ! D116  D(43,40,41,45)       -176.7027         estimate D2E/DX2                !
 ! D117  D(43,40,41,59)        -61.9858         estimate D2E/DX2                !
 ! D118  D(40,41,44,46)         79.8504         estimate D2E/DX2                !
 ! D119  D(40,41,44,52)       -101.9921         estimate D2E/DX2                !
 ! D120  D(45,41,44,46)        -41.1833         estimate D2E/DX2                !
 ! D121  D(45,41,44,52)        136.9743         estimate D2E/DX2                !
 ! D122  D(59,41,44,46)       -156.7757         estimate D2E/DX2                !
 ! D123  D(59,41,44,52)         21.3819         estimate D2E/DX2                !
 ! D124  D(41,44,46,47)        177.7923         estimate D2E/DX2                !
 ! D125  D(41,44,46,48)         -0.8711         estimate D2E/DX2                !
 ! D126  D(52,44,46,47)         -0.4346         estimate D2E/DX2                !
 ! D127  D(52,44,46,48)       -179.098          estimate D2E/DX2                !
 ! D128  D(41,44,52,51)       -177.7704         estimate D2E/DX2                !
 ! D129  D(41,44,52,54)          0.8386         estimate D2E/DX2                !
 ! D130  D(46,44,52,51)          0.4478         estimate D2E/DX2                !
 ! D131  D(46,44,52,54)        179.0568         estimate D2E/DX2                !
 ! D132  D(44,46,47,49)         -0.0008         estimate D2E/DX2                !
 ! D133  D(44,46,47,50)       -177.9147         estimate D2E/DX2                !
 ! D134  D(48,46,47,49)        178.6578         estimate D2E/DX2                !
 ! D135  D(48,46,47,50)          0.7439         estimate D2E/DX2                !
 ! D136  D(46,47,49,51)          0.4316         estimate D2E/DX2                !
 ! D137  D(46,47,49,55)        179.6409         estimate D2E/DX2                !
 ! D138  D(50,47,49,51)        178.3947         estimate D2E/DX2                !
 ! D139  D(50,47,49,55)         -2.3961         estimate D2E/DX2                !
 ! D140  D(47,49,51,52)         -0.4185         estimate D2E/DX2                !
 ! D141  D(47,49,51,53)       -178.4035         estimate D2E/DX2                !
 ! D142  D(55,49,51,52)       -179.6261         estimate D2E/DX2                !
 ! D143  D(55,49,51,53)          2.389          estimate D2E/DX2                !
 ! D144  D(47,49,55,56)        -89.0045         estimate D2E/DX2                !
 ! D145  D(47,49,55,57)         30.9157         estimate D2E/DX2                !
 ! D146  D(47,49,55,58)        151.0037         estimate D2E/DX2                !
 ! D147  D(51,49,55,56)         90.1908         estimate D2E/DX2                !
 ! D148  D(51,49,55,57)       -149.889          estimate D2E/DX2                !
 ! D149  D(51,49,55,58)        -29.801          estimate D2E/DX2                !
 ! D150  D(49,51,52,44)         -0.0261         estimate D2E/DX2                !
 ! D151  D(49,51,52,54)       -178.6285         estimate D2E/DX2                !
 ! D152  D(53,51,52,44)        177.9119         estimate D2E/DX2                !
 ! D153  D(53,51,52,54)         -0.6905         estimate D2E/DX2                !
 --------------------------------------------------------------------------------
 Trust Radius=3.00D-01 FncErr=1.00D-07 GrdErr=1.00D-06 EigMax=2.50D+02 EigMin=1.00D-04
 Number of steps in this run=    332 maximum allowed number of steps=    354.
 GradGradGradGradGradGradGradGradGradGradGradGradGradGradGradGradGradGrad

 Stoichiometry    C24H23O9S3(3-)
 Framework group  C1[X(C24H23O9S3)]
 Deg. of freedom   171
 Full point group                 C1      NOp   1
 Largest Abelian subgroup         C1      NOp   1
 Largest concise Abelian subgroup C1      NOp   1
                         Standard orientation:                         
 ---------------------------------------------------------------------
 Center     Atomic      Atomic             Coordinates (Angstroms)
 Number     Number       Type             X           Y           Z
 ---------------------------------------------------------------------
      1          6           0       -2.087559   -0.948829   -1.526781
      2          6           0       -1.959923    0.199142   -0.507340
      3          1           0       -2.770934   -1.726818   -1.167408
      4          1           0       -1.125299   -1.430205   -1.718720
      5          6           0       -3.280320    0.958200   -0.366282
      6          1           0       -1.225424    0.914381   -0.902945
      7          6           0       -3.353803    2.332831   -0.631605
      8          6           0       -4.554153    3.037472   -0.508378
      9          1           0       -2.451577    2.861464   -0.937961
     10          6           0       -5.720941    2.380859   -0.113732
     11          1           0       -4.597111    4.105408   -0.700433
     12          6           0       -5.662024    1.012801    0.165970
     13          6           0       -4.460625    0.314363    0.040544
     14          1           0       -6.565986    0.510936    0.498084
     15          1           0       -4.441525   -0.750780    0.264676
     16         16           0       -7.307763    3.275929   -0.022636
     17          8           0       -7.904171    3.116950   -1.378632
     18          8           0       -6.921015    4.676393    0.307387
     19          8           0       -8.061600    2.574054    1.054339
     20          1           0       -2.483448   -0.570091   -2.476629
     21          6           0       -1.462133   -0.259318    0.888832
     22          6           0       -0.013149   -0.820675    1.061362
     23          1           0       -1.540607    0.612553    1.553043
     24          1           0       -2.166122   -1.003230    1.284711
     25          6           0        0.147320   -2.289590    0.651247
     26          1           0        0.123121   -0.820712    2.155084
     27          6           0        0.861870   -2.726099   -0.473624
     28          6           0        0.979790   -4.086065   -0.779877
     29          1           0        1.339376   -1.999862   -1.127356
     30          6           0        0.387353   -5.052973    0.032690
     31          1           0        1.524227   -4.410489   -1.661574
     32          6           0       -0.334382   -4.635168    1.154055
     33          6           0       -0.443923   -3.279043    1.455593
     34          1           0       -0.812543   -5.386391    1.775585
     35          1           0       -1.002279   -2.974336    2.340883
     36         16           0        0.605686   -6.831220   -0.310685
     37          8           0        0.786517   -6.901038   -1.787285
     38          8           0       -0.652699   -7.453630    0.188904
     39          8           0        1.816769   -7.213130    0.467936
     40          6           0        1.061597    0.147467    0.517511
     41          6           0        2.471319   -0.110393    1.096445
     42          1           0        0.761141    1.171911    0.776866
     43          1           0        1.104797    0.121203   -0.578816
     44          6           0        3.521038    0.916245    0.711400
     45          1           0        2.383954   -0.137099    2.192791
     46          6           0        3.599792    2.151996    1.372656
     47          6           0        4.589405    3.083340    1.056826
     48          1           0        2.884482    2.376760    2.163836
     49          6           0        5.533412    2.803058    0.065008
     50          1           0        4.664810    4.023191    1.595436
     51          6           0        5.462656    1.581765   -0.608073
     52          6           0        4.469131    0.653474   -0.287385
     53          1           0        6.213980    1.357744   -1.359329
     54          1           0        4.440670   -0.304220   -0.805891
     55         16           0        6.822420    4.024058   -0.356051
     56          8           0        6.210729    4.870118   -1.417540
     57          8           0        7.069809    4.744565    0.925066
     58          8           0        7.968167    3.195550   -0.826588
     59          1           0        2.806279   -1.109386    0.794967
 ---------------------------------------------------------------------
 Rotational constants (GHZ):           0.0593074           0.0406497           0.0250893
 Standard basis: 6-311+G(d,p) (5D, 7F)
 There are   990 symmetry adapted cartesian basis functions of A   symmetry.
 There are   954 symmetry adapted basis functions of A   symmetry.
   954 basis functions,  1522 primitive gaussians,   990 cartesian basis functions
   145 alpha electrons      145 beta electrons
       nuclear repulsion energy      4091.3854620138 Hartrees.
 NAtoms=   59 NActive=   59 NUniq=   59 SFac= 1.00D+00 NAtFMM=   60 NAOKFM=F Big=F
 Integral buffers will be    131072 words long.
 Raffenetti 2 integral format.
 Two-electron integral symmetry is turned on.
 One-electron integrals computed using PRISM.
 NBasis=   954 RedAO= T EigKep=  1.05D-06  NBF=   954
 NBsUse=   948 1.00D-06 EigRej=  8.59D-07 NBFU=   948
 Initial guess from the checkpoint file:  "sps_syn.chk"
 B after Tr=    -0.000000    0.000000   -0.000000
         Rot=    1.000000    0.000000    0.000000   -0.000000 Ang=   0.00 deg.
 Requested convergence on RMS density matrix=1.00D-08 within 128 cycles.
 Requested convergence on MAX density matrix=1.00D-06.
 Requested convergence on             energy=1.00D-06.
 No special actions if energy rises.
 SCF Done:  E(RB3LYP) =  -2800.47339529     A.U. after   15 cycles
            NFock= 15  Conv=0.37D-08     -V/T= 2.0029

 **********************************************************************

            Population analysis using the SCF density.

 **********************************************************************

 Orbital symmetries:
       Occupied  (A) (A) (A) (A) (A) (A) (A) (A) (A) (A) (A) (A)
                 (A) (A) (A) (A) (A) (A) (A) (A) (A) (A) (A) (A)
                 (A) (A) (A) (A) (A) (A) (A) (A) (A) (A) (A) (A)
                 (A) (A) (A) (A) (A) (A) (A) (A) (A) (A) (A) (A)
                 (A) (A) (A) (A) (A) (A) (A) (A) (A) (A) (A) (A)
                 (A) (A) (A) (A) (A) (A) (A) (A) (A) (A) (A) (A)
                 (A) (A) (A) (A) (A) (A) (A) (A) (A) (A) (A) (A)
                 (A) (A) (A) (A) (A) (A) (A) (A) (A) (A) (A) (A)
                 (A) (A) (A) (A) (A) (A) (A) (A) (A) (A) (A) (A)
                 (A) (A) (A) (A) (A) (A) (A) (A) (A) (A) (A) (A)
                 (A) (A) (A) (A) (A) (A) (A) (A) (A) (A) (A) (A)
                 (A) (A) (A) (A) (A) (A) (A) (A) (A) (A) (A) (A)
                 (A)
       Virtual   (A) (A) (A) (A) (A) (A) (A) (A) (A) (A) (A) (A)
                 (A) (A) (A) (A) (A) (A) (A) (A) (A) (A) (A) (A)
                 (A) (A) (A) (A) (A) (A) (A) (A) (A) (A) (A) (A)
                 (A) (A) (A) (A) (A) (A) (A) (A) (A) (A) (A) (A)
                 (A) (A) (A) (A) (A) (A) (A) (A) (A) (A) (A) (A)
                 (A) (A) (A) (A) (A) (A) (A) (A) (A) (A) (A) (A)
                 (A) (A) (A) (A) (A) (A) (A) (A) (A) (A) (A) (A)
                 (A) (A) (A) (A) (A) (A) (A) (A) (A) (A) (A) (A)
                 (A) (A) (A) (A) (A) (A) (A) (A) (A) (A) (A) (A)
                 (A) (A) (A) (A) (A) (A) (A) (A) (A) (A) (A) (A)
                 (A) (A) (A) (A) (A) (A) (A) (A) (A) (A) (A) (A)
                 (A) (A) (A) (A) (A) (A) (A) (A) (A) (A) (A) (A)
                 (A) (A) (A) (A) (A) (A) (A) (A) (A) (A) (A) (A)
                 (A) (A) (A) (A) (A) (A) (A) (A) (A) (A) (A) (A)
                 (A) (A) (A) (A) (A) (A) (A) (A) (A) (A) (A) (A)
                 (A) (A) (A) (A) (A) (A) (A) (A) (A) (A) (A) (A)
                 (A) (A) (A) (A) (A) (A) (A) (A) (A) (A) (A) (A)
                 (A) (A) (A) (A) (A) (A) (A) (A) (A) (A) (A) (A)
                 (A) (A) (A) (A) (A) (A) (A) (A) (A) (A) (A) (A)
                 (A) (A) (A) (A) (A) (A) (A) (A) (A) (A) (A) (A)
                 (A) (A) (A) (A) (A) (A) (A) (A) (A) (A) (A) (A)
                 (A) (A) (A) (A) (A) (A) (A) (A) (A) (A) (A) (A)
                 (A) (A) (A) (A) (A) (A) (A) (A) (A) (A) (A) (A)
                 (A) (A) (A) (A) (A) (A) (A) (A) (A) (A) (A) (A)
                 (A) (A) (A) (A) (A) (A) (A) (A) (A) (A) (A) (A)
                 (A) (A) (A) (A) (A) (A) (A) (A) (A) (A) (A) (A)
                 (A) (A) (A) (A) (A) (A) (A) (A) (A) (A) (A) (A)
                 (A) (A) (A) (A) (A) (A) (A) (A) (A) (A) (A) (A)
                 (A) (A) (A) (A) (A) (A) (A) (A) (A) (A) (A) (A)
                 (A) (A) (A) (A) (A) (A) (A) (A) (A) (A) (A) (A)
                 (A) (A) (A) (A) (A) (A) (A) (A) (A) (A) (A) (A)
                 (A) (A) (A) (A) (A) (A) (A) (A) (A) (A) (A) (A)
                 (A) (A) (A) (A) (A) (A) (A) (A) (A) (A) (A) (A)
                 (A) (A) (A) (A) (A) (A) (A) (A) (A) (A) (A) (A)
                 (A) (A) (A) (A) (A) (A) (A) (A) (A) (A) (A) (A)
                 (A) (A) (A) (A) (A) (A) (A) (A) (A) (A) (A) (A)
                 (A) (A) (A) (A) (A) (A) (A) (A) (A) (A) (A) (A)
                 (A) (A) (A) (A) (A) (A) (A) (A) (A) (A) (A) (A)
                 (A) (A) (A) (A) (A) (A) (A) (A) (A) (A) (A) (A)
                 (A) (A) (A) (A) (A) (A) (A) (A) (A) (A) (A) (A)
                 (A) (A) (A) (A) (A) (A) (A) (A) (A) (A) (A) (A)
                 (A) (A) (A) (A) (A) (A) (A) (A) (A) (A) (A) (A)
                 (A) (A) (A) (A) (A) (A) (A) (A) (A) (A) (A) (A)
                 (A) (A) (A) (A) (A) (A) (A) (A) (A) (A) (A) (A)
                 (A) (A) (A) (A) (A) (A) (A) (A) (A) (A) (A) (A)
                 (A) (A) (A) (A) (A) (A) (A) (A) (A) (A) (A) (A)
                 (A) (A) (A) (A) (A) (A) (A) (A) (A) (A) (A) (A)
                 (A) (A) (A) (A) (A) (A) (A) (A) (A) (A) (A) (A)
                 (A) (A) (A) (A) (A) (A) (A) (A) (A) (A) (A) (A)
                 (A) (A) (A) (A) (A) (A) (A) (A) (A) (A) (A) (A)
                 (A) (A) (A) (A) (A) (A) (A) (A) (A) (A) (A) (A)
                 (A) (A) (A) (A) (A) (A) (A) (A) (A) (A) (A) (A)
                 (A) (A) (A) (A) (A) (A) (A) (A) (A) (A) (A) (A)
                 (A) (A) (A) (A) (A) (A) (A) (A) (A) (A) (A) (A)
                 (A) (A) (A) (A) (A) (A) (A) (A) (A) (A) (A) (A)
                 (A) (A) (A) (A) (A) (A) (A) (A) (A) (A) (A) (A)
                 (A) (A) (A) (A) (A) (A) (A) (A) (A) (A) (A) (A)
                 (A) (A) (A) (A) (A) (A) (A) (A) (A) (A) (A) (A)
                 (A) (A) (A) (A) (A) (A) (A) (A) (A) (A) (A) (A)
                 (A) (A) (A) (A) (A) (A) (A) (A) (A) (A) (A) (A)
                 (A) (A) (A) (A) (A) (A) (A) (A) (A) (A) (A) (A)
                 (A) (A) (A) (A) (A) (A) (A) (A) (A) (A) (A) (A)
                 (A) (A) (A) (A) (A) (A) (A) (A) (A) (A) (A) (A)
                 (A) (A) (A) (A) (A) (A) (A) (A) (A) (A) (A) (A)
                 (A) (A) (A) (A) (A) (A) (A) (A) (A) (A) (A) (A)
                 (A) (A) (A) (A) (A) (A) (A) (A) (A) (A) (A) (A)
                 (A) (A) (A) (A) (A) (A) (A) (A) (A) (A) (A)
 The electronic state is 1-A.
 Alpha  occ. eigenvalues --  -88.80075 -88.80029 -88.79932 -18.84353 -18.84348
 Alpha  occ. eigenvalues --  -18.84301 -18.84300 -18.84250 -18.84226 -18.84199
 Alpha  occ. eigenvalues --  -18.84193 -18.84120  -9.99089  -9.98610  -9.98236
 Alpha  occ. eigenvalues --   -9.98233  -9.97955  -9.97886  -9.97865  -9.97729
 Alpha  occ. eigenvalues --   -9.97544  -9.97424  -9.97411  -9.97322  -9.97237
 Alpha  occ. eigenvalues --   -9.97210  -9.97188  -9.97126  -9.97100  -9.96988
 Alpha  occ. eigenvalues --   -9.96916  -9.96898  -9.96846  -9.96831  -9.96800
 Alpha  occ. eigenvalues --   -9.96268  -7.85917  -7.85871  -7.85772  -5.82174
 Alpha  occ. eigenvalues --   -5.82164  -5.82137  -5.82127  -5.82119  -5.82090
 Alpha  occ. eigenvalues --   -5.82028  -5.82020  -5.81994  -0.85993  -0.85941
 Alpha  occ. eigenvalues --   -0.85851  -0.72450  -0.72410  -0.72323  -0.72269
 Alpha  occ. eigenvalues --   -0.72209  -0.72112  -0.66256  -0.65711  -0.65501
 Alpha  occ. eigenvalues --   -0.62137  -0.59631  -0.57233  -0.54286  -0.54272
 Alpha  occ. eigenvalues --   -0.54156  -0.53708  -0.52946  -0.50808  -0.46221
 Alpha  occ. eigenvalues --   -0.43646  -0.42209  -0.40620  -0.40467  -0.40357
 Alpha  occ. eigenvalues --   -0.39319  -0.38332  -0.35839  -0.35017  -0.34942
 Alpha  occ. eigenvalues --   -0.34768  -0.30081  -0.29465  -0.28925  -0.27288
 Alpha  occ. eigenvalues --   -0.26816  -0.26233  -0.25792  -0.24882  -0.24724
 Alpha  occ. eigenvalues --   -0.24356  -0.24000  -0.23350  -0.22883  -0.22125
 Alpha  occ. eigenvalues --   -0.21851  -0.21679  -0.21482  -0.21449  -0.21028
 Alpha  occ. eigenvalues --   -0.20388  -0.20341  -0.20269  -0.20071  -0.19841
 Alpha  occ. eigenvalues --   -0.19735  -0.19658  -0.18475  -0.17815  -0.16846
 Alpha  occ. eigenvalues --   -0.16247  -0.15958  -0.15362  -0.15077  -0.14793
 Alpha  occ. eigenvalues --   -0.14349  -0.13553  -0.13318  -0.12823  -0.12484
 Alpha  occ. eigenvalues --   -0.11754  -0.08431  -0.08403  -0.08392  -0.08342
 Alpha  occ. eigenvalues --   -0.08299  -0.08226  -0.06862  -0.06771  -0.06408
 Alpha  occ. eigenvalues --   -0.05337  -0.05181  -0.05171  -0.04735  -0.04715
 Alpha  occ. eigenvalues --   -0.04693  -0.04656  -0.04629  -0.04570  -0.02502
 Alpha  occ. eigenvalues --   -0.02409  -0.02090  -0.00580  -0.00541  -0.00429
 Alpha virt. eigenvalues --    0.17655   0.18284   0.18602   0.18867   0.18960
 Alpha virt. eigenvalues --    0.19045   0.19160   0.19559   0.19950   0.20203
 Alpha virt. eigenvalues --    0.21401   0.21557   0.21978   0.22241   0.23012
 Alpha virt. eigenvalues --    0.23123   0.23913   0.24376   0.24413   0.24580
 Alpha virt. eigenvalues --    0.25007   0.25311   0.25552   0.25791   0.25949
 Alpha virt. eigenvalues --    0.26072   0.26519   0.26830   0.26901   0.27211
 Alpha virt. eigenvalues --    0.27561   0.27839   0.27953   0.28298   0.28440
 Alpha virt. eigenvalues --    0.28555   0.29160   0.29465   0.29678   0.29820
 Alpha virt. eigenvalues --    0.30005   0.30278   0.30830   0.30964   0.31164
 Alpha virt. eigenvalues --    0.31387   0.31629   0.31764   0.32089   0.32299
 Alpha virt. eigenvalues --    0.32475   0.32683   0.32789   0.32920   0.33539
 Alpha virt. eigenvalues --    0.33621   0.33993   0.34161   0.34306   0.34520
 Alpha virt. eigenvalues --    0.34605   0.34817   0.35072   0.35200   0.35266
 Alpha virt. eigenvalues --    0.35296   0.35644   0.35802   0.35987   0.36137
 Alpha virt. eigenvalues --    0.36273   0.36440   0.36899   0.37045   0.37192
 Alpha virt. eigenvalues --    0.37552   0.37645   0.37819   0.37876   0.38066
 Alpha virt. eigenvalues --    0.38275   0.38332   0.38580   0.38800   0.38979
 Alpha virt. eigenvalues --    0.39161   0.39262   0.39475   0.39704   0.39823
 Alpha virt. eigenvalues --    0.40006   0.40300   0.40414   0.40599   0.40913
 Alpha virt. eigenvalues --    0.41005   0.41201   0.41276   0.41429   0.41666
 Alpha virt. eigenvalues --    0.41947   0.42127   0.42318   0.42539   0.42738
 Alpha virt. eigenvalues --    0.42870   0.43184   0.43550   0.43573   0.43703
 Alpha virt. eigenvalues --    0.43882   0.44090   0.44245   0.44511   0.44668
 Alpha virt. eigenvalues --    0.44712   0.44754   0.44948   0.45385   0.45766
 Alpha virt. eigenvalues --    0.45982   0.45985   0.46120   0.46540   0.46557
 Alpha virt. eigenvalues --    0.47081   0.47116   0.47259   0.47519   0.47658
 Alpha virt. eigenvalues --    0.47805   0.48038   0.48151   0.48425   0.48687
 Alpha virt. eigenvalues --    0.48983   0.49028   0.49235   0.49544   0.49616
 Alpha virt. eigenvalues --    0.49841   0.50086   0.50393   0.50639   0.50760
 Alpha virt. eigenvalues --    0.51031   0.51153   0.51455   0.51593   0.52062
 Alpha virt. eigenvalues --    0.52361   0.52649   0.52812   0.52887   0.53076
 Alpha virt. eigenvalues --    0.53354   0.53473   0.53734   0.53968   0.54061
 Alpha virt. eigenvalues --    0.54390   0.54552   0.54607   0.54785   0.54873
 Alpha virt. eigenvalues --    0.55045   0.55132   0.55386   0.55546   0.55685
 Alpha virt. eigenvalues --    0.55946   0.56390   0.56520   0.56534   0.57087
 Alpha virt. eigenvalues --    0.57339   0.57825   0.58080   0.58218   0.58854
 Alpha virt. eigenvalues --    0.59060   0.59171   0.59423   0.59654   0.59976
 Alpha virt. eigenvalues --    0.60102   0.60541   0.60952   0.61125   0.61500
 Alpha virt. eigenvalues --    0.61926   0.62060   0.62193   0.62685   0.62972
 Alpha virt. eigenvalues --    0.63076   0.63382   0.63801   0.64345   0.65252
 Alpha virt. eigenvalues --    0.65674   0.65939   0.66765   0.67122   0.67481
 Alpha virt. eigenvalues --    0.67772   0.68224   0.68834   0.69337   0.69896
 Alpha virt. eigenvalues --    0.70248   0.70615   0.71422   0.71676   0.72215
 Alpha virt. eigenvalues --    0.72808   0.73226   0.73752   0.73960   0.74203
 Alpha virt. eigenvalues --    0.74903   0.75147   0.75332   0.75664   0.76186
 Alpha virt. eigenvalues --    0.76638   0.76937   0.77116   0.77748   0.78645
 Alpha virt. eigenvalues --    0.79192   0.79777   0.79973   0.80238   0.80599
 Alpha virt. eigenvalues --    0.80905   0.81689   0.81951   0.82173   0.82732
 Alpha virt. eigenvalues --    0.83069   0.83872   0.83926   0.84426   0.85015
 Alpha virt. eigenvalues --    0.85180   0.85590   0.86215   0.86459   0.86886
 Alpha virt. eigenvalues --    0.87270   0.87631   0.88089   0.88517   0.88841
 Alpha virt. eigenvalues --    0.89145   0.89544   0.89857   0.90136   0.90429
 Alpha virt. eigenvalues --    0.90921   0.91383   0.92034   0.92126   0.92436
 Alpha virt. eigenvalues --    0.92534   0.92989   0.93114   0.93388   0.93759
 Alpha virt. eigenvalues --    0.94346   0.94410   0.94834   0.94997   0.95473
 Alpha virt. eigenvalues --    0.95988   0.96146   0.96569   0.96828   0.97148
 Alpha virt. eigenvalues --    0.97494   0.98064   0.98323   0.99049   0.99110
 Alpha virt. eigenvalues --    0.99453   1.00174   1.00335   1.00579   1.01118
 Alpha virt. eigenvalues --    1.01655   1.01980   1.02423   1.02775   1.03842
 Alpha virt. eigenvalues --    1.04559   1.04913   1.05204   1.05460   1.06195
 Alpha virt. eigenvalues --    1.06296   1.06806   1.07267   1.07756   1.08250
 Alpha virt. eigenvalues --    1.08429   1.09808   1.10018   1.10898   1.11161
 Alpha virt. eigenvalues --    1.11335   1.11735   1.11911   1.13117   1.13185
 Alpha virt. eigenvalues --    1.13923   1.14573   1.15096   1.15694   1.16030
 Alpha virt. eigenvalues --    1.17302   1.17546   1.17932   1.18993   1.19153
 Alpha virt. eigenvalues --    1.19819   1.20053   1.20670   1.20733   1.20987
 Alpha virt. eigenvalues --    1.21623   1.22040   1.22661   1.23357   1.23820
 Alpha virt. eigenvalues --    1.24514   1.24975   1.26061   1.26508   1.26732
 Alpha virt. eigenvalues --    1.27206   1.27602   1.28234   1.28675   1.29454
 Alpha virt. eigenvalues --    1.29816   1.30071   1.30252   1.30676   1.31243
 Alpha virt. eigenvalues --    1.31504   1.32073   1.32491   1.33219   1.33898
 Alpha virt. eigenvalues --    1.34563   1.35583   1.36132   1.36656   1.37123
 Alpha virt. eigenvalues --    1.37295   1.37572   1.39107   1.39844   1.39949
 Alpha virt. eigenvalues --    1.40480   1.40886   1.41238   1.41765   1.42147
 Alpha virt. eigenvalues --    1.42568   1.42666   1.42797   1.43139   1.43166
 Alpha virt. eigenvalues --    1.43902   1.44288   1.44668   1.44947   1.45438
 Alpha virt. eigenvalues --    1.45822   1.46094   1.46421   1.46652   1.47446
 Alpha virt. eigenvalues --    1.47669   1.47938   1.48320   1.48563   1.49039
 Alpha virt. eigenvalues --    1.49072   1.49260   1.49703   1.49795   1.50588
 Alpha virt. eigenvalues --    1.51658   1.52391   1.52714   1.52860   1.53869
 Alpha virt. eigenvalues --    1.54744   1.55247   1.58803   1.62233   1.64399
 Alpha virt. eigenvalues --    1.65032   1.65587   1.66304   1.67013   1.68647
 Alpha virt. eigenvalues --    1.70291   1.70503   1.70529   1.71092   1.71928
 Alpha virt. eigenvalues --    1.72630   1.73142   1.73805   1.74455   1.75144
 Alpha virt. eigenvalues --    1.75410   1.76359   1.76863   1.77216   1.77360
 Alpha virt. eigenvalues --    1.77878   1.78320   1.78840   1.79224   1.79916
 Alpha virt. eigenvalues --    1.81766   1.82128   1.82313   1.83017   1.83222
 Alpha virt. eigenvalues --    1.83508   1.83694   1.84447   1.84794   1.85316
 Alpha virt. eigenvalues --    1.85512   1.85883   1.86332   1.86354   1.86723
 Alpha virt. eigenvalues --    1.87654   1.88388   1.88848   1.89190   1.89409
 Alpha virt. eigenvalues --    1.90534   1.91198   1.92282   1.92846   1.93345
 Alpha virt. eigenvalues --    1.94386   1.94800   1.95845   1.96216   1.96686
 Alpha virt. eigenvalues --    1.97028   1.97158   1.98125   1.98515   1.98816
 Alpha virt. eigenvalues --    1.99378   1.99714   2.00368   2.01095   2.01372
 Alpha virt. eigenvalues --    2.01878   2.02156   2.02953   2.04177   2.04342
 Alpha virt. eigenvalues --    2.05265   2.06971   2.07217   2.07736   2.08561
 Alpha virt. eigenvalues --    2.08952   2.09421   2.09723   2.11818   2.12007
 Alpha virt. eigenvalues --    2.12588   2.12967   2.13656   2.14062   2.14778
 Alpha virt. eigenvalues --    2.14918   2.15474   2.16004   2.16473   2.16743
 Alpha virt. eigenvalues --    2.17024   2.17309   2.17915   2.18260   2.18530
 Alpha virt. eigenvalues --    2.18915   2.19912   2.20376   2.21032   2.21201
 Alpha virt. eigenvalues --    2.21725   2.22641   2.23409   2.23644   2.23913
 Alpha virt. eigenvalues --    2.24818   2.25577   2.27581   2.28052   2.28967
 Alpha virt. eigenvalues --    2.29442   2.29524   2.29866   2.30498   2.33066
 Alpha virt. eigenvalues --    2.33783   2.34519   2.35886   2.36070   2.36270
 Alpha virt. eigenvalues --    2.38216   2.39103   2.39717   2.40601   2.41473
 Alpha virt. eigenvalues --    2.42875   2.44445   2.45180   2.46125   2.47927
 Alpha virt. eigenvalues --    2.49109   2.51870   2.52863   2.53524   2.54071
 Alpha virt. eigenvalues --    2.55267   2.55941   2.56985   2.57890   2.58295
 Alpha virt. eigenvalues --    2.59317   2.60154   2.61305   2.61517   2.61964
 Alpha virt. eigenvalues --    2.62870   2.63256   2.63825   2.65507   2.66543
 Alpha virt. eigenvalues --    2.68877   2.69803   2.71845   2.72964   2.73792
 Alpha virt. eigenvalues --    2.76828   2.77626   2.79190   2.80057   2.82021
 Alpha virt. eigenvalues --    2.84220   2.84603   2.84794   2.85782   2.86339
 Alpha virt. eigenvalues --    2.86859   2.87169   2.88364   2.89159   2.89824
 Alpha virt. eigenvalues --    2.90403   2.90673   2.91364   2.92162   2.92507
 Alpha virt. eigenvalues --    2.93293   2.93604   2.93814   2.94496   2.94567
 Alpha virt. eigenvalues --    2.95345   2.95993   2.96395   2.96774   2.97613
 Alpha virt. eigenvalues --    2.98154   2.98728   2.99385   2.99639   3.01757
 Alpha virt. eigenvalues --    3.02381   3.03162   3.03410   3.03706   3.03805
 Alpha virt. eigenvalues --    3.03924   3.04813   3.06212   3.06493   3.07012
 Alpha virt. eigenvalues --    3.07412   3.07596   3.08737   3.09714   3.09825
 Alpha virt. eigenvalues --    3.10020   3.10212   3.10325   3.10593   3.10697
 Alpha virt. eigenvalues --    3.10707   3.10831   3.11011   3.11311   3.11351
 Alpha virt. eigenvalues --    3.11701   3.12097   3.12478   3.13135   3.13282
 Alpha virt. eigenvalues --    3.13572   3.13694   3.14038   3.14329   3.14759
 Alpha virt. eigenvalues --    3.14971   3.15185   3.15887   3.16301   3.16420
 Alpha virt. eigenvalues --    3.16823   3.17550   3.19035   3.19275   3.20860
 Alpha virt. eigenvalues --    3.21753   3.21809   3.23270   3.23571   3.23807
 Alpha virt. eigenvalues --    3.24193   3.24488   3.25156   3.26249   3.28065
 Alpha virt. eigenvalues --    3.28454   3.28583   3.29120   3.31238   3.32340
 Alpha virt. eigenvalues --    3.33403   3.34836   3.36913   3.39253   3.39487
 Alpha virt. eigenvalues --    3.39677   3.39893   3.40130   3.40735   3.41431
 Alpha virt. eigenvalues --    3.42871   3.44451   3.44719   3.45690   3.46619
 Alpha virt. eigenvalues --    3.48159   3.49264   3.50434   3.54831   3.56966
 Alpha virt. eigenvalues --    3.58606   3.59644   3.63719   3.63945   3.64459
 Alpha virt. eigenvalues --    3.65489   3.66715   3.69014   3.70526   3.70761
 Alpha virt. eigenvalues --    3.71425   3.71787   3.74475   3.80789   3.81522
 Alpha virt. eigenvalues --    3.82093   3.83425   3.83600   3.83782   3.85235
 Alpha virt. eigenvalues --    3.85300   3.85582   3.88730   3.89018   3.89732
 Alpha virt. eigenvalues --    3.98693   4.01449   4.03556   4.04293   4.04533
 Alpha virt. eigenvalues --    4.05071   4.05700   4.07690   4.16873   4.19673
 Alpha virt. eigenvalues --    4.20296   4.21896   4.26171   4.35399   4.36190
 Alpha virt. eigenvalues --    4.36287   4.36578   4.36896   4.37871   4.38882
 Alpha virt. eigenvalues --    4.43049   4.54159   4.54862   4.59129   4.63630
 Alpha virt. eigenvalues --    5.05216   5.05730   5.05878   5.28494   5.28553
 Alpha virt. eigenvalues --    5.28794   5.28970   5.29136   5.29528   5.30915
 Alpha virt. eigenvalues --    5.31064   5.31611   5.32981   5.33293   5.33458
 Alpha virt. eigenvalues --    5.33740   5.33933   5.33936   5.36318   5.36435
 Alpha virt. eigenvalues --    5.36490   5.36680   5.36858   5.37046   5.53816
 Alpha virt. eigenvalues --    5.54041   5.54259   5.54433   5.54476   5.54710
 Alpha virt. eigenvalues --    8.43326   8.43361   8.43581  17.64065  17.64274
 Alpha virt. eigenvalues --   17.64402  17.65861  17.66029  17.66153  17.72742
 Alpha virt. eigenvalues --   17.73192  17.73329  23.78192  23.78822  23.81160
 Alpha virt. eigenvalues --   24.02839  24.06759  24.09531  24.13272  24.13983
 Alpha virt. eigenvalues --   24.15637  24.15765  24.16083  24.16572  24.16962
 Alpha virt. eigenvalues --   24.18617  24.20362  24.26631  24.26791  24.27406
 Alpha virt. eigenvalues --   24.29964  24.30233  24.30460  24.38256  24.38495
 Alpha virt. eigenvalues --   24.38547  50.14381  50.14601  50.14723  50.14772
 Alpha virt. eigenvalues --   50.14896  50.15067  50.20697  50.21004  50.21361
 Alpha virt. eigenvalues --  189.51874 189.51901 189.52095
          Condensed to atoms (all electrons):
 Mulliken charges:
               1
     1  C   -0.678124
     2  C    0.273976
     3  H    0.144381
     4  H    0.166904
     5  C    0.732529
     6  H    0.111848
     7  C   -0.193556
     8  C   -0.431776
     9  H    0.096899
    10  C   -0.268342
    11  H    0.141762
    12  C   -0.369308
    13  C   -0.458337
    14  H    0.139411
    15  H    0.102873
    16  S    0.630307
    17  O   -0.301540
    18  O   -0.363893
    19  O   -0.368755
    20  H    0.129269
    21  C   -0.791391
    22  C    0.679029
    23  H    0.132890
    24  H    0.127271
    25  C    1.243257
    26  H    0.121077
    27  C   -0.626920
    28  C   -0.157332
    29  H    0.111360
    30  C   -0.507042
    31  H    0.140920
    32  C   -0.405977
    33  C   -0.567817
    34  H    0.138505
    35  H    0.092486
    36  S    0.717635
    37  O   -0.360469
    38  O   -0.364209
    39  O   -0.284218
    40  C   -0.820286
    41  C   -0.451519
    42  H    0.153846
    43  H    0.156261
    44  C    0.630845
    45  H    0.126217
    46  C   -0.259695
    47  C   -0.481517
    48  H    0.092410
    49  C   -0.249738
    50  H    0.141254
    51  C   -0.506867
    52  C   -0.171958
    53  H    0.143124
    54  H    0.102000
    55  S    0.614378
    56  O   -0.295606
    57  O   -0.375716
    58  O   -0.370752
    59  H    0.147733
 Sum of Mulliken charges =  -3.00000
 Mulliken charges with hydrogens summed into heavy atoms:
               1
     1  C   -0.237569
     2  C    0.385824
     5  C    0.732529
     7  C   -0.096657
     8  C   -0.290014
    10  C   -0.268342
    12  C   -0.229897
    13  C   -0.355464
    16  S    0.630307
    17  O   -0.301540
    18  O   -0.363893
    19  O   -0.368755
    21  C   -0.531230
    22  C    0.800106
    25  C    1.243257
    27  C   -0.515560
    28  C   -0.016412
    30  C   -0.507042
    32  C   -0.267471
    33  C   -0.475331
    36  S    0.717635
    37  O   -0.360469
    38  O   -0.364209
    39  O   -0.284218
    40  C   -0.510179
    41  C   -0.177568
    44  C    0.630845
    46  C   -0.167285
    47  C   -0.340263
    49  C   -0.249738
    51  C   -0.363743
    52  C   -0.069958
    55  S    0.614378
    56  O   -0.295606
    57  O   -0.375716
    58  O   -0.370752
 Electronic spatial extent (au):  <R**2>=          38685.1752
 Charge=             -3.0000 electrons
 Dipole moment (field-independent basis, Debye):
    X=             -0.2546    Y=             -3.0281    Z=              4.0104  Tot=              5.0316
 Quadrupole moment (field-independent basis, Debye-Ang):
   XX=           -797.3661   YY=           -657.2084   ZZ=           -267.3552
   XY=              5.4281   XZ=              8.2745   YZ=             -2.8157
 Traceless Quadrupole moment (field-independent basis, Debye-Ang):
   XX=           -223.3895   YY=            -83.2319   ZZ=            306.6214
   XY=              5.4281   XZ=              8.2745   YZ=             -2.8157
 Octapole moment (field-independent basis, Debye-Ang**2):
  XXX=            390.3593  YYY=           1185.3151  ZZZ=             22.2189  XYY=           -339.6091
  XXY=          -1962.1267  XXZ=             88.0583  XZZ=             10.1822  YZZ=            -10.0117
  YYZ=            120.0093  XYZ=             63.3677
 Hexadecapole moment (field-independent basis, Debye-Ang**3):
 XXXX=         -62681.9660 YYYY=         -37707.7996 ZZZZ=          -1475.8235 XXXY=            108.6206
 XXXZ=            409.9085 YYYX=             42.5779 YYYZ=           -390.3406 ZZZX=            -37.2896
 ZZZY=            -47.4393 XXYY=         -17181.8711 XXZZ=          -6303.1910 YYZZ=          -4283.7515
 XXYZ=            399.2899 YYXZ=            231.7787 ZZXY=             -1.0311
 N-N= 4.091385462014D+03 E-N=-1.484679715345D+04  KE= 2.792360348181D+03
 Calling FoFJK, ICntrl=      2127 FMM=F ISym2X=0 I1Cent= 0 IOpClX= 0 NMat=1 NMatS=1 NMatT=0.
 ***** Axes restored to original set *****
 -------------------------------------------------------------------
 Center     Atomic                   Forces (Hartrees/Bohr)
 Number     Number              X              Y              Z
 -------------------------------------------------------------------
      1        6          -0.000798065    0.000953414   -0.000504442
      2        6          -0.000479081   -0.000518799    0.000611678
      3        1          -0.000639187   -0.001200168    0.000840041
      4        1           0.000741130   -0.000762804   -0.001400509
      5        6           0.000566527   -0.000840212   -0.000834122
      6        1           0.000870168    0.000950272   -0.001334232
      7        6          -0.000017595    0.000970161    0.000443572
      8        6           0.000608216   -0.000513119   -0.001498613
      9        1           0.000839512    0.000784652   -0.001453218
     10        6          -0.002587577    0.002806857    0.005303564
     11        1          -0.000302455    0.001404838    0.000278905
     12        6           0.000470581   -0.000650462   -0.000931837
     13        6          -0.000410300   -0.000362949    0.000826114
     14        1          -0.000899747   -0.000484862    0.001069216
     15        1           0.000112258   -0.001913023   -0.000478690
     16       16           0.000843272    0.000566361    0.002012655
     17        8           0.001992213   -0.000667654   -0.000135839
     18        8          -0.000318533    0.001219640   -0.002429515
     19        8          -0.001297178   -0.002134752   -0.001087483
     20        1           0.001033818    0.000704492    0.001042091
     21        6           0.001266256    0.000247081   -0.000574420
     22        6           0.000746282   -0.000532038    0.000394909
     23        1          -0.001042065    0.001119838   -0.000112847
     24        1          -0.000699932   -0.001255909    0.000843801
     25        6          -0.000831143    0.001554448    0.000230781
     26        1          -0.001633633    0.000091917   -0.000552453
     27        6           0.001490694   -0.000249839   -0.000323525
     28        6          -0.000313097    0.000961000   -0.000042644
     29        1           0.000779296    0.001641772   -0.000487753
     30        6           0.002514877   -0.006032032   -0.000124383
     31        1           0.001325933   -0.000458665   -0.000118188
     32        6          -0.000553492    0.001159350    0.000075487
     33        6          -0.000480851   -0.000770687    0.000201912
     34        1          -0.000498243   -0.001265940    0.000571055
     35        1          -0.001747465    0.000641613    0.000409044
     36       16          -0.000031022   -0.001719144   -0.001586133
     37        8           0.001723914    0.002006033    0.000852182
     38        8          -0.001649040    0.000766122    0.002054411
     39        8          -0.000975612    0.000953408   -0.001631285
     40        6          -0.000673956   -0.000982513   -0.000387304
     41        6           0.000548228    0.001180875   -0.000105469
     42        1          -0.000697375    0.001506178    0.000172834
     43        1           0.001445448    0.000277231    0.000406384
     44        6          -0.000151887   -0.000478528    0.000738846
     45        1          -0.001670990   -0.000509620   -0.000030995
     46        6          -0.000380890    0.000742902   -0.000256535
     47        6          -0.000449844   -0.000797542    0.001008251
     48        1          -0.001627536   -0.000186609    0.000963043
     49        6           0.001850443    0.004584113   -0.004285704
     50        1          -0.000725154    0.001096584   -0.000658140
     51        6          -0.000215979   -0.001156168    0.001024180
     52        6           0.000683341    0.000147936   -0.000562539
     53        1           0.001116208    0.000042108   -0.000952485
     54        1           0.000919685   -0.001545190    0.000585422
     55       16           0.000962928    0.001772088    0.000183082
     56        8           0.000461413    0.000189521    0.002149494
     57        8          -0.002553356   -0.000776176   -0.000017518
     58        8           0.000620121   -0.002583629   -0.000569562
     59        1           0.000819519   -0.001693770    0.000175427
 -------------------------------------------------------------------
 Cartesian Forces:  Max     0.006032032 RMS     0.001302756

 GradGradGradGradGradGradGradGradGradGradGradGradGradGradGradGradGradGrad
 Berny optimization.
 FormGI is forming the generalized inverse of G from B-inverse, IUseBI=4.
 Internal  Forces:  Max     0.003562724 RMS     0.001048685
 Search for a local minimum.
 Step number   1 out of a maximum of  332
 All quantities printed in internal units (Hartrees-Bohrs-Radians)
 Mixed Optimization -- RFO/linear search
 Second derivative matrix not updated -- first step.
 ITU=  0
     Eigenvalues ---    0.00230   0.00230   0.00230   0.00230   0.00230
     Eigenvalues ---    0.00230   0.00230   0.00230   0.00323   0.00375
     Eigenvalues ---    0.00529   0.01284   0.01301   0.01327   0.01408
     Eigenvalues ---    0.01417   0.01458   0.02049   0.02056   0.02063
     Eigenvalues ---    0.02079   0.02087   0.02093   0.02095   0.02095
     Eigenvalues ---    0.02100   0.02116   0.02118   0.02121   0.02126
     Eigenvalues ---    0.02131   0.02131   0.02135   0.02135   0.02139
     Eigenvalues ---    0.02141   0.02141   0.02152   0.02757   0.02771
     Eigenvalues ---    0.03292   0.03539   0.03743   0.04599   0.04601
     Eigenvalues ---    0.04714   0.05102   0.05318   0.05344   0.05475
     Eigenvalues ---    0.05731   0.05936   0.08440   0.09533   0.09678
     Eigenvalues ---    0.12308   0.12762   0.12789   0.12797   0.12810
     Eigenvalues ---    0.12837   0.12847   0.13044   0.13080   0.15989
     Eigenvalues ---    0.15990   0.15996   0.15997   0.15997   0.15998
     Eigenvalues ---    0.15999   0.15999   0.16000   0.16000   0.16000
     Eigenvalues ---    0.16000   0.16000   0.16000   0.16000   0.17343
     Eigenvalues ---    0.18094   0.18350   0.19869   0.21888   0.21972
     Eigenvalues ---    0.22000   0.22000   0.22001   0.22048   0.22955
     Eigenvalues ---    0.22959   0.22961   0.23991   0.23995   0.23997
     Eigenvalues ---    0.24261   0.24299   0.24304   0.24971   0.24980
     Eigenvalues ---    0.24986   0.24997   0.24998   0.24999   0.25000
     Eigenvalues ---    0.25000   0.25000   0.25000   0.25000   0.25000
     Eigenvalues ---    0.25000   0.25000   0.25000   0.26537   0.27521
     Eigenvalues ---    0.28026   0.28049   0.28468   0.29102   0.29465
     Eigenvalues ---    0.30565   0.33442   0.33666   0.33805   0.33809
     Eigenvalues ---    0.33832   0.33898   0.33961   0.34069   0.34118
     Eigenvalues ---    0.34136   0.34476   0.34800   0.34810   0.34854
     Eigenvalues ---    0.34880   0.34971   0.35096   0.35283   0.35286
     Eigenvalues ---    0.35289   0.35295   0.35297   0.35298   0.41530
     Eigenvalues ---    0.41589   0.41634   0.41861   0.41871   0.41889
     Eigenvalues ---    0.45199   0.45300   0.45367   0.45686   0.45687
     Eigenvalues ---    0.45690   0.46098   0.46136   0.46146   0.46306
     Eigenvalues ---    0.46320   0.46499   0.79910   0.80007   0.80031
     Eigenvalues ---    0.80037   0.80123   0.80133   0.80236   0.80343
     Eigenvalues ---    0.80483
 RFO step:  Lambda=-1.20835419D-03 EMin= 2.30000000D-03
 Linear search not attempted -- first point.
 Iteration  1 RMS(Cart)=  0.04888931 RMS(Int)=  0.00044102
 Iteration  2 RMS(Cart)=  0.00081733 RMS(Int)=  0.00002684
 Iteration  3 RMS(Cart)=  0.00000024 RMS(Int)=  0.00002684
 Variable       Old X    -DE/DX   Delta X   Delta X   Delta X     New X
                                 (Linear)    (Quad)   (Total)
    R1        2.91128  -0.00043   0.00000  -0.00151  -0.00151   2.90977
    R2        2.07131  -0.00160   0.00000  -0.00467  -0.00467   2.06665
    R3        2.06535  -0.00175   0.00000  -0.00507  -0.00507   2.06028
    R4        2.07214  -0.00162   0.00000  -0.00475  -0.00475   2.06739
    R5        2.89043  -0.00111   0.00000  -0.00374  -0.00374   2.88668
    R6        2.07660  -0.00179   0.00000  -0.00527  -0.00527   2.07133
    R7        2.93199  -0.00055   0.00000  -0.00200  -0.00200   2.92998
    R8        2.64926  -0.00212   0.00000  -0.00466  -0.00466   2.64460
    R9        2.65448  -0.00217   0.00000  -0.00483  -0.00483   2.64965
   R10        2.64058  -0.00153   0.00000  -0.00330  -0.00331   2.63728
   R11        2.05912  -0.00183   0.00000  -0.00525  -0.00525   2.05388
   R12        2.63769  -0.00262   0.00000  -0.00564  -0.00564   2.63205
   R13        2.05209  -0.00142   0.00000  -0.00401  -0.00401   2.04808
   R14        2.64108  -0.00241   0.00000  -0.00523  -0.00523   2.63586
   R15        3.44711   0.00224   0.00000   0.00918   0.00918   3.45629
   R16        2.63677  -0.00182   0.00000  -0.00393  -0.00393   2.63284
   R17        2.05217  -0.00143   0.00000  -0.00404  -0.00404   2.04813
   R18        2.05723  -0.00193   0.00000  -0.00551  -0.00551   2.05172
   R19        2.81544  -0.00142   0.00000  -0.00177  -0.00177   2.81367
   R20        2.81549  -0.00199   0.00000  -0.00248  -0.00248   2.81302
   R21        2.81612  -0.00192   0.00000  -0.00240  -0.00240   2.81372
   R22        2.95453  -0.00063   0.00000  -0.00237  -0.00237   2.95217
   R23        2.07654  -0.00153   0.00000  -0.00451  -0.00451   2.07204
   R24        2.07503  -0.00167   0.00000  -0.00490  -0.00490   2.07013
   R25        2.89791  -0.00106   0.00000  -0.00362  -0.00362   2.89429
   R26        2.08282  -0.00168   0.00000  -0.00502  -0.00502   2.07780
   R27        2.92031  -0.00094   0.00000  -0.00334  -0.00334   2.91698
   R28        2.64997  -0.00281   0.00000  -0.00624  -0.00624   2.64373
   R29        2.65610  -0.00205   0.00000  -0.00456  -0.00456   2.65153
   R30        2.64373  -0.00207   0.00000  -0.00455  -0.00455   2.63917
   R31        2.05520  -0.00184   0.00000  -0.00523  -0.00523   2.04997
   R32        2.63626  -0.00247   0.00000  -0.00531  -0.00531   2.63095
   R33        2.05194  -0.00137   0.00000  -0.00386  -0.00386   2.04808
   R34        2.64083  -0.00253   0.00000  -0.00543  -0.00543   2.63540
   R35        3.44725   0.00219   0.00000   0.00898   0.00898   3.45623
   R36        2.63344  -0.00187   0.00000  -0.00395  -0.00395   2.62949
   R37        2.05214  -0.00143   0.00000  -0.00403  -0.00403   2.04811
   R38        2.06001  -0.00186   0.00000  -0.00534  -0.00534   2.05468
   R39        2.81431  -0.00206   0.00000  -0.00255  -0.00255   2.81176
   R40        2.81595  -0.00192   0.00000  -0.00239  -0.00239   2.81356
   R41        2.81489  -0.00143   0.00000  -0.00178  -0.00178   2.81311
   R42        2.92082  -0.00057   0.00000  -0.00204  -0.00204   2.91878
   R43        2.07614  -0.00166   0.00000  -0.00490  -0.00490   2.07124
   R44        2.07396  -0.00152   0.00000  -0.00447  -0.00447   2.06949
   R45        2.86850  -0.00132   0.00000  -0.00432  -0.00432   2.86418
   R46        2.07897  -0.00171   0.00000  -0.00505  -0.00505   2.07392
   R47        2.07102  -0.00180   0.00000  -0.00527  -0.00527   2.06575
   R48        2.65272  -0.00199   0.00000  -0.00439  -0.00439   2.64833
   R49        2.64933  -0.00201   0.00000  -0.00439  -0.00439   2.64494
   R50        2.63648  -0.00174   0.00000  -0.00375  -0.00375   2.63273
   R51        2.05985  -0.00186   0.00000  -0.00534  -0.00534   2.05451
   R52        2.64117  -0.00247   0.00000  -0.00538  -0.00538   2.63578
   R53        2.05199  -0.00143   0.00000  -0.00403  -0.00403   2.04796
   R54        2.63859  -0.00257   0.00000  -0.00555  -0.00555   2.63304
   R55        3.44826   0.00225   0.00000   0.00923   0.00923   3.45749
   R56        2.63998  -0.00161   0.00000  -0.00347  -0.00348   2.63650
   R57        2.05195  -0.00142   0.00000  -0.00402  -0.00402   2.04793
   R58        2.05871  -0.00186   0.00000  -0.00533  -0.00533   2.05338
   R59        2.81356  -0.00160   0.00000  -0.00198  -0.00198   2.81158
   R60        2.81664  -0.00189   0.00000  -0.00236  -0.00236   2.81428
   R61        2.81599  -0.00197   0.00000  -0.00246  -0.00246   2.81352
    A1        1.94292   0.00011   0.00000   0.00117   0.00117   1.94409
    A2        1.95138   0.00002   0.00000  -0.00008  -0.00008   1.95130
    A3        1.92383  -0.00008   0.00000  -0.00081  -0.00081   1.92301
    A4        1.86908  -0.00001   0.00000   0.00048   0.00048   1.86956
    A5        1.87976   0.00003   0.00000   0.00055   0.00055   1.88031
    A6        1.89428  -0.00006   0.00000  -0.00130  -0.00130   1.89298
    A7        1.93831   0.00014   0.00000   0.00116   0.00116   1.93947
    A8        1.87775   0.00001   0.00000   0.00132   0.00132   1.87907
    A9        1.98434   0.00021   0.00000   0.00284   0.00284   1.98718
   A10        1.86210  -0.00025   0.00000  -0.00608  -0.00608   1.85602
   A11        1.91837  -0.00022   0.00000  -0.00103  -0.00103   1.91734
   A12        1.87741   0.00009   0.00000   0.00123   0.00122   1.87863
   A13        2.11110  -0.00018   0.00000  -0.00078  -0.00078   2.11032
   A14        2.12306   0.00016   0.00000   0.00056   0.00057   2.12362
   A15        2.04901   0.00003   0.00000   0.00022   0.00022   2.04923
   A16        2.12092   0.00011   0.00000   0.00065   0.00065   2.12156
   A17        2.07774   0.00021   0.00000   0.00133   0.00133   2.07907
   A18        2.08452  -0.00032   0.00000  -0.00197  -0.00197   2.08255
   A19        2.10110  -0.00064   0.00000  -0.00275  -0.00276   2.09834
   A20        2.11100   0.00001   0.00000  -0.00056  -0.00056   2.11044
   A21        2.07095   0.00063   0.00000   0.00331   0.00331   2.07427
   A22        2.07353   0.00096   0.00000   0.00383   0.00383   2.07735
   A23        2.10653  -0.00047   0.00000  -0.00197  -0.00198   2.10455
   A24        2.10248  -0.00048   0.00000  -0.00201  -0.00202   2.10047
   A25        2.10399  -0.00054   0.00000  -0.00239  -0.00240   2.10159
   A26        2.06972   0.00058   0.00000   0.00313   0.00313   2.07285
   A27        2.10934  -0.00004   0.00000  -0.00070  -0.00070   2.10864
   A28        2.11775   0.00010   0.00000   0.00051   0.00050   2.11825
   A29        2.08672   0.00037   0.00000   0.00237   0.00237   2.08909
   A30        2.07871  -0.00047   0.00000  -0.00287  -0.00287   2.07584
   A31        1.82391   0.00238   0.00000   0.00877   0.00870   1.83261
   A32        1.81984   0.00335   0.00000   0.01366   0.01355   1.83340
   A33        1.81835   0.00349   0.00000   0.01424   0.01413   1.83248
   A34        1.98867  -0.00254   0.00000  -0.01101  -0.01110   1.97757
   A35        1.98778  -0.00256   0.00000  -0.01103  -0.01113   1.97665
   A36        1.99758  -0.00216   0.00000  -0.00685  -0.00702   1.99056
[...]
 Alpha  occ. eigenvalues --   -0.02431  -0.02125  -0.00481  -0.00449  -0.00337
 Alpha virt. eigenvalues --    0.17662   0.18311   0.18641   0.18827   0.18939
 Alpha virt. eigenvalues --    0.19018   0.19137   0.19540   0.19947   0.20206
 Alpha virt. eigenvalues --    0.21365   0.21544   0.21967   0.22219   0.23024
 Alpha virt. eigenvalues --    0.23106   0.23896   0.24380   0.24445   0.24593
 Alpha virt. eigenvalues --    0.24961   0.25296   0.25535   0.25802   0.25925
 Alpha virt. eigenvalues --    0.26082   0.26554   0.26808   0.26886   0.27181
 Alpha virt. eigenvalues --    0.27559   0.27829   0.27964   0.28304   0.28423
 Alpha virt. eigenvalues --    0.28557   0.29166   0.29466   0.29671   0.29808
 Alpha virt. eigenvalues --    0.30038   0.30224   0.30875   0.30981   0.31176
 Alpha virt. eigenvalues --    0.31407   0.31630   0.31737   0.32071   0.32241
 Alpha virt. eigenvalues --    0.32497   0.32692   0.32788   0.32945   0.33509
 Alpha virt. eigenvalues --    0.33681   0.33978   0.34173   0.34278   0.34505
 Alpha virt. eigenvalues --    0.34526   0.34831   0.35121   0.35230   0.35330
 Alpha virt. eigenvalues --    0.35457   0.35738   0.35828   0.35965   0.36096
 Alpha virt. eigenvalues --    0.36302   0.36698   0.36858   0.36938   0.37291
 Alpha virt. eigenvalues --    0.37568   0.37682   0.37828   0.37875   0.38151
 Alpha virt. eigenvalues --    0.38250   0.38474   0.38645   0.38794   0.39069
 Alpha virt. eigenvalues --    0.39180   0.39200   0.39486   0.39662   0.39808
 Alpha virt. eigenvalues --    0.39965   0.40257   0.40436   0.40494   0.40950
 Alpha virt. eigenvalues --    0.41003   0.41249   0.41301   0.41507   0.41661
 Alpha virt. eigenvalues --    0.41972   0.42122   0.42275   0.42489   0.42732
 Alpha virt. eigenvalues --    0.42976   0.43225   0.43522   0.43531   0.43721
 Alpha virt. eigenvalues --    0.43778   0.44149   0.44233   0.44435   0.44797
 Alpha virt. eigenvalues --    0.44819   0.44879   0.44960   0.45432   0.45698
 Alpha virt. eigenvalues --    0.45904   0.46084   0.46220   0.46497   0.46629
 Alpha virt. eigenvalues --    0.46953   0.47079   0.47242   0.47555   0.47676
 Alpha virt. eigenvalues --    0.47864   0.48121   0.48218   0.48471   0.48708
 Alpha virt. eigenvalues --    0.48962   0.49121   0.49366   0.49460   0.49639
 Alpha virt. eigenvalues --    0.49878   0.50124   0.50330   0.50633   0.50781
 Alpha virt. eigenvalues --    0.51019   0.51208   0.51403   0.51653   0.52015
 Alpha virt. eigenvalues --    0.52314   0.52690   0.52764   0.52914   0.53261
 Alpha virt. eigenvalues --    0.53417   0.53512   0.53858   0.53927   0.54135
 Alpha virt. eigenvalues --    0.54440   0.54613   0.54669   0.54816   0.54936
 Alpha virt. eigenvalues --    0.54996   0.55256   0.55386   0.55562   0.55724
 Alpha virt. eigenvalues --    0.55794   0.56395   0.56436   0.56602   0.56959
 Alpha virt. eigenvalues --    0.57615   0.57895   0.58152   0.58213   0.58892
 Alpha virt. eigenvalues --    0.59084   0.59316   0.59553   0.59658   0.59804
 Alpha virt. eigenvalues --    0.60213   0.60512   0.60989   0.61264   0.61552
 Alpha virt. eigenvalues --    0.61879   0.62105   0.62277   0.62737   0.62957
 Alpha virt. eigenvalues --    0.63147   0.63377   0.63991   0.64246   0.65261
 Alpha virt. eigenvalues --    0.65559   0.65910   0.67053   0.67211   0.67723
 Alpha virt. eigenvalues --    0.67916   0.68222   0.68878   0.69283   0.69906
 Alpha virt. eigenvalues --    0.70166   0.70652   0.71494   0.71578   0.72384
 Alpha virt. eigenvalues --    0.72973   0.73268   0.73870   0.73958   0.74209
 Alpha virt. eigenvalues --    0.74904   0.75190   0.75340   0.76028   0.76345
 Alpha virt. eigenvalues --    0.76648   0.77017   0.77237   0.77907   0.78850
 Alpha virt. eigenvalues --    0.79230   0.79837   0.80101   0.80378   0.80738
 Alpha virt. eigenvalues --    0.81032   0.81681   0.81931   0.82221   0.82805
 Alpha virt. eigenvalues --    0.83085   0.83852   0.83900   0.84408   0.85070
 Alpha virt. eigenvalues --    0.85237   0.85706   0.86212   0.86536   0.86933
 Alpha virt. eigenvalues --    0.87433   0.87562   0.88193   0.88429   0.88834
 Alpha virt. eigenvalues --    0.89234   0.89585   0.89892   0.90219   0.90455
 Alpha virt. eigenvalues --    0.91037   0.91454   0.91980   0.92049   0.92467
 Alpha virt. eigenvalues --    0.92536   0.93115   0.93171   0.93362   0.93834
 Alpha virt. eigenvalues --    0.94287   0.94487   0.94929   0.95037   0.95488
 Alpha virt. eigenvalues --    0.95881   0.96170   0.96630   0.96873   0.97068
 Alpha virt. eigenvalues --    0.97502   0.98113   0.98410   0.99101   0.99135
 Alpha virt. eigenvalues --    0.99548   1.00070   1.00439   1.00770   1.01213
 Alpha virt. eigenvalues --    1.01582   1.01778   1.02337   1.02787   1.03853
 Alpha virt. eigenvalues --    1.04556   1.04959   1.05198   1.05509   1.06251
 Alpha virt. eigenvalues --    1.06426   1.06842   1.07375   1.07842   1.08279
 Alpha virt. eigenvalues --    1.08501   1.09866   1.10137   1.10894   1.11077
 Alpha virt. eigenvalues --    1.11227   1.11590   1.11800   1.12945   1.13345
 Alpha virt. eigenvalues --    1.13989   1.14586   1.15089   1.15753   1.16159
 Alpha virt. eigenvalues --    1.17410   1.17591   1.17884   1.18961   1.19225
 Alpha virt. eigenvalues --    1.19722   1.20102   1.20564   1.20863   1.21331
 Alpha virt. eigenvalues --    1.21566   1.22265   1.22701   1.23354   1.23702
 Alpha virt. eigenvalues --    1.24599   1.24812   1.26117   1.26490   1.26725
 Alpha virt. eigenvalues --    1.27365   1.27745   1.28150   1.28798   1.29420
 Alpha virt. eigenvalues --    1.29578   1.29999   1.30187   1.30473   1.31026
 Alpha virt. eigenvalues --    1.31301   1.32021   1.32356   1.33384   1.34063
 Alpha virt. eigenvalues --    1.34714   1.35598   1.36128   1.36922   1.37395
 Alpha virt. eigenvalues --    1.37604   1.37632   1.39287   1.39878   1.39965
 Alpha virt. eigenvalues --    1.40418   1.40986   1.41683   1.41864   1.42242
 Alpha virt. eigenvalues --    1.42556   1.42753   1.42840   1.43121   1.43171
 Alpha virt. eigenvalues --    1.43935   1.44202   1.44620   1.44936   1.45632
 Alpha virt. eigenvalues --    1.45870   1.46243   1.46367   1.46687   1.47649
 Alpha virt. eigenvalues --    1.47835   1.48052   1.48301   1.48438   1.48912
 Alpha virt. eigenvalues --    1.49094   1.49279   1.49687   1.49778   1.50651
 Alpha virt. eigenvalues --    1.51780   1.52353   1.52774   1.53051   1.53935
 Alpha virt. eigenvalues --    1.54724   1.55147   1.58874   1.62632   1.64421
 Alpha virt. eigenvalues --    1.64987   1.65714   1.66438   1.67021   1.68795
 Alpha virt. eigenvalues --    1.70425   1.70613   1.70748   1.71188   1.72052
 Alpha virt. eigenvalues --    1.72913   1.73283   1.73863   1.74576   1.75295
 Alpha virt. eigenvalues --    1.75548   1.76480   1.76982   1.77360   1.77543
 Alpha virt. eigenvalues --    1.77997   1.78460   1.78987   1.79350   1.79992
 Alpha virt. eigenvalues --    1.81893   1.82202   1.82530   1.82996   1.83384
 Alpha virt. eigenvalues --    1.83472   1.83737   1.84691   1.84801   1.85420
 Alpha virt. eigenvalues --    1.85636   1.85916   1.86398   1.86550   1.86884
 Alpha virt. eigenvalues --    1.87749   1.88613   1.88915   1.89274   1.89668
 Alpha virt. eigenvalues --    1.90703   1.91402   1.92267   1.92888   1.93540
 Alpha virt. eigenvalues --    1.94180   1.95083   1.95717   1.95884   1.96478
 Alpha virt. eigenvalues --    1.97090   1.97414   1.98272   1.98713   1.99119
 Alpha virt. eigenvalues --    1.99559   1.99895   2.00551   2.01200   2.01453
 Alpha virt. eigenvalues --    2.02033   2.02357   2.03008   2.04456   2.04661
 Alpha virt. eigenvalues --    2.05473   2.07087   2.07360   2.07897   2.08606
 Alpha virt. eigenvalues --    2.08992   2.09567   2.09952   2.11721   2.12011
 Alpha virt. eigenvalues --    2.12568   2.13125   2.13722   2.14109   2.14724
 Alpha virt. eigenvalues --    2.15102   2.15463   2.15755   2.16290   2.16714
 Alpha virt. eigenvalues --    2.16936   2.17277   2.17949   2.18449   2.19056
 Alpha virt. eigenvalues --    2.19509   2.20232   2.20543   2.21216   2.21417
 Alpha virt. eigenvalues --    2.21965   2.23013   2.23606   2.23697   2.24248
 Alpha virt. eigenvalues --    2.24878   2.25685   2.27697   2.28167   2.29311
 Alpha virt. eigenvalues --    2.29639   2.29763   2.30049   2.30719   2.33145
 Alpha virt. eigenvalues --    2.33922   2.34687   2.35990   2.36196   2.36365
 Alpha virt. eigenvalues --    2.38465   2.39373   2.40161   2.40969   2.41686
 Alpha virt. eigenvalues --    2.43049   2.44660   2.45568   2.46336   2.48180
 Alpha virt. eigenvalues --    2.49351   2.52121   2.53061   2.53892   2.54478
 Alpha virt. eigenvalues --    2.55576   2.56244   2.57256   2.58216   2.58621
 Alpha virt. eigenvalues --    2.59615   2.60537   2.61654   2.61783   2.62245
 Alpha virt. eigenvalues --    2.63117   2.63477   2.64250   2.65783   2.66810
 Alpha virt. eigenvalues --    2.69212   2.70156   2.72244   2.73415   2.74109
 Alpha virt. eigenvalues --    2.77291   2.78141   2.79625   2.80569   2.82403
 Alpha virt. eigenvalues --    2.84686   2.84884   2.85167   2.85979   2.86671
 Alpha virt. eigenvalues --    2.87188   2.87482   2.88626   2.89316   2.90139
 Alpha virt. eigenvalues --    2.90702   2.90831   2.91562   2.92212   2.92905
 Alpha virt. eigenvalues --    2.93650   2.93832   2.93974   2.94771   2.94876
 Alpha virt. eigenvalues --    2.95239   2.96144   2.96472   2.96883   2.97757
 Alpha virt. eigenvalues --    2.98118   2.98874   2.99361   2.99697   3.01959
 Alpha virt. eigenvalues --    3.02354   3.03198   3.03431   3.03726   3.03838
 Alpha virt. eigenvalues --    3.03938   3.05025   3.06292   3.06478   3.06941
 Alpha virt. eigenvalues --    3.07255   3.07748   3.08707   3.09572   3.09836
 Alpha virt. eigenvalues --    3.09901   3.10207   3.10277   3.10340   3.10758
 Alpha virt. eigenvalues --    3.10819   3.10913   3.11003   3.11395   3.11517
 Alpha virt. eigenvalues --    3.11730   3.12083   3.12437   3.13118   3.13388
 Alpha virt. eigenvalues --    3.13633   3.13854   3.14013   3.14331   3.14717
 Alpha virt. eigenvalues --    3.14938   3.15142   3.16005   3.16487   3.16730
 Alpha virt. eigenvalues --    3.17031   3.17581   3.19069   3.19229   3.20678
 Alpha virt. eigenvalues --    3.21751   3.22043   3.23347   3.23588   3.23812
 Alpha virt. eigenvalues --    3.24049   3.24499   3.24997   3.26384   3.28445
 Alpha virt. eigenvalues --    3.28819   3.28987   3.29405   3.31210   3.32420
 Alpha virt. eigenvalues --    3.33331   3.34872   3.36931   3.39426   3.39711
 Alpha virt. eigenvalues --    3.39800   3.40044   3.40315   3.40959   3.41662
 Alpha virt. eigenvalues --    3.42910   3.44364   3.45119   3.45840   3.46838
 Alpha virt. eigenvalues --    3.48471   3.49392   3.50657   3.55229   3.57667
 Alpha virt. eigenvalues --    3.59039   3.60094   3.63987   3.64190   3.64712
 Alpha virt. eigenvalues --    3.65757   3.67021   3.69155   3.70887   3.71139
 Alpha virt. eigenvalues --    3.71678   3.72069   3.74787   3.81831   3.82552
 Alpha virt. eigenvalues --    3.83106   3.83774   3.83912   3.84102   3.85467
 Alpha virt. eigenvalues --    3.85585   3.85861   3.89080   3.89445   3.90110
 Alpha virt. eigenvalues --    3.99180   4.02215   4.03960   4.04434   4.04767
 Alpha virt. eigenvalues --    4.05161   4.06150   4.08141   4.17345   4.20056
 Alpha virt. eigenvalues --    4.20735   4.22309   4.26733   4.35997   4.36523
 Alpha virt. eigenvalues --    4.36636   4.36977   4.37270   4.38586   4.39244
 Alpha virt. eigenvalues --    4.43555   4.54623   4.55201   4.59454   4.63936
 Alpha virt. eigenvalues --    5.05662   5.06163   5.06363   5.28013   5.28279
 Alpha virt. eigenvalues --    5.28610   5.29383   5.29684   5.30044   5.31047
 Alpha virt. eigenvalues --    5.31144   5.31705   5.32615   5.33228   5.33486
 Alpha virt. eigenvalues --    5.33685   5.34055   5.34067   5.36345   5.36417
 Alpha virt. eigenvalues --    5.36732   5.36864   5.36956   5.37264   5.53688
 Alpha virt. eigenvalues --    5.54094   5.54116   5.54659   5.54868   5.55115
 Alpha virt. eigenvalues --    8.43571   8.43684   8.43874  17.64233  17.64388
 Alpha virt. eigenvalues --   17.64525  17.65787  17.65906  17.66093  17.73199
 Alpha virt. eigenvalues --   17.73486  17.73718  23.78422  23.79050  23.81424
 Alpha virt. eigenvalues --   24.03253  24.07190  24.10083  24.13832  24.14682
 Alpha virt. eigenvalues --   24.16332  24.16384  24.16704  24.17094  24.17649
 Alpha virt. eigenvalues --   24.19165  24.20978  24.27623  24.27799  24.28364
 Alpha virt. eigenvalues --   24.30627  24.30873  24.31182  24.39149  24.39427
 Alpha virt. eigenvalues --   24.39463  50.14271  50.14561  50.14661  50.15052
 Alpha virt. eigenvalues --   50.15078  50.15329  50.20896  50.21190  50.21559
 Alpha virt. eigenvalues --  189.52173 189.52299 189.52461
          Condensed to atoms (all electrons):
 Mulliken charges:
               1
     1  C   -0.675259
     2  C    0.282284
     3  H    0.143467
     4  H    0.167440
     5  C    0.721433
     6  H    0.111440
     7  C   -0.160673
     8  C   -0.389739
     9  H    0.096777
    10  C   -0.258673
    11  H    0.142682
    12  C   -0.411697
    13  C   -0.496871
    14  H    0.138269
    15  H    0.102122
    16  S    0.630698
    17  O   -0.304221
    18  O   -0.367447
    19  O   -0.368056
    20  H    0.129332
    21  C   -0.794405
    22  C    0.738933
    23  H    0.133239
    24  H    0.127120
    25  C    1.204230
    26  H    0.119920
    27  C   -0.549681
    28  C   -0.147821
    29  H    0.108991
    30  C   -0.493229
    31  H    0.142837
    32  C   -0.476301
    33  C   -0.582098
    34  H    0.137143
    35  H    0.092093
    36  S    0.710871
    37  O   -0.364420
    38  O   -0.361149
    39  O   -0.288133
    40  C   -0.826752
    41  C   -0.479335
    42  H    0.154081
    43  H    0.155377
    44  C    0.727143
    45  H    0.127378
    46  C   -0.410332
    47  C   -0.563414
    48  H    0.092913
    49  C   -0.311572
    50  H    0.138834
    51  C   -0.371580
    52  C   -0.087456
    53  H    0.146275
    54  H    0.102197
    55  S    0.615382
    56  O   -0.297823
    57  O   -0.374077
    58  O   -0.374997
    59  H    0.146309
 Sum of Mulliken charges =  -3.00000
 Mulliken charges with hydrogens summed into heavy atoms:
               1
     1  C   -0.235020
     2  C    0.393724
     5  C    0.721433
     7  C   -0.063896
     8  C   -0.247058
    10  C   -0.258673
    12  C   -0.273428
    13  C   -0.394749
    16  S    0.630698
    17  O   -0.304221
    18  O   -0.367447
    19  O   -0.368056
    21  C   -0.534046
    22  C    0.858854
    25  C    1.204230
    27  C   -0.440690
    28  C   -0.004984
    30  C   -0.493229
    32  C   -0.339157
    33  C   -0.490005
    36  S    0.710871
    37  O   -0.364420
    38  O   -0.361149
    39  O   -0.288133
    40  C   -0.517294
    41  C   -0.205648
    44  C    0.727143
    46  C   -0.317419
    47  C   -0.424580
    49  C   -0.311572
    51  C   -0.225304
    52  C    0.014741
    55  S    0.615382
    56  O   -0.297823
    57  O   -0.374077
    58  O   -0.374997
 Electronic spatial extent (au):  <R**2>=          38639.5980
 Charge=             -3.0000 electrons
 Dipole moment (field-independent basis, Debye):
    X=             -0.3335    Y=             -3.1065    Z=              4.0010  Tot=              5.0764
 Quadrupole moment (field-independent basis, Debye-Ang):
   XX=           -796.4868   YY=           -659.9608   ZZ=           -267.3851
   XY=              5.7984   XZ=              8.4987   YZ=             -2.8103
 Traceless Quadrupole moment (field-independent basis, Debye-Ang):
   XX=           -221.8759   YY=            -85.3499   ZZ=            307.2258
   XY=              5.7984   XZ=              8.4987   YZ=             -2.8103
 Octapole moment (field-independent basis, Debye-Ang**2):
  XXX=            428.0699  YYY=           1188.1583  ZZZ=             18.9285  XYY=           -371.7937
  XXY=          -1964.6959  XXZ=             87.5190  XZZ=              5.9831  YZZ=             -9.2610
  YYZ=            122.7774  XYZ=             63.6199
 Hexadecapole moment (field-independent basis, Debye-Ang**3):
 XXXX=         -62371.1441 YYYY=         -37980.3721 ZZZZ=          -1460.8624 XXXY=             88.2008
 XXXZ=            405.4896 YYYX=             55.6092 YYYZ=           -368.1123 ZZZX=            -34.1476
 ZZZY=            -52.2353 XXYY=         -17232.4498 XXZZ=          -6304.3500 YYZZ=          -4283.7468
 XXYZ=            378.8514 YYXZ=            234.4530 ZZXY=              5.7007
 N-N= 4.093624152007D+03 E-N=-1.485143369311D+04  KE= 2.792574800522D+03
 1\1\GINC-NID00989\FOpt\RB3LYP\6-311+G(d,p)\C24H23O9S3(3-)\NMARIONI\04-
 Feb-2021\0\\#n B3LYP/6-311+g** Opt geom=check guess=read\\sps_syn\\-3,
 1\C,-2.2053446637,-0.273560908,-0.107773191\C,-1.1018193604,-1.2523995
 799,0.3340112007\H,-1.7914440072,0.5627878749,-0.6779244801\H,-2.73500
 14946,0.1503801099,0.7458409525\C,-0.4736990344,-1.9547334716,-0.86897
 37892\H,-1.5746975638,-2.0352092057,0.9380330067\C,-0.4867853665,-3.34
 99535328,-0.974660223\C,0.0823939929,-4.0054655676,-2.0687269091\H,-0.
 9501570257,-3.9365117147,-0.1855579082\C,0.6850660391,-3.2719564073,-3
 .0868791127\H,0.0771053002,-5.0871012305,-2.1353334067\C,0.7157043544,
 -1.8805438449,-2.9958791622\C,0.143496202,-1.2341853624,-1.9019438573\
 H,1.2018684028,-1.3143737543,-3.7818479224\H,0.1801155207,-0.150009300
 8,-1.8548349963\S,1.3729087617,-4.1134581977,-4.5597438837\O,0.2675054
 52,-4.0932404319,-5.5568982818\O,1.723378931,-5.479073222,-4.084329353
 2\O,2.5434856893,-3.2831784723,-4.9537665203\H,-2.931113434,-0.7859415
 279,-0.7461788881\C,0.0056722517,-0.5957169261,1.1978203505\C,-0.32776
 08151,-0.0625326816,2.6276115455\H,0.7947799053,-1.3465456811,1.322634
 2466\H,0.4569733249,0.2214341182,0.6245699526\C,-0.9943812872,1.316946
 7834,2.6463948981\H,0.6658359211,0.1071844584,3.0665599677\C,-2.325792
 5791,1.5464043643,3.0077856314\C,-2.8682569363,2.8348291236,3.01477293
 74\H,-2.9622298411,0.7152007541,3.2923411246\C,-2.0875149924,3.9303427
 949,2.6598544147\H,-3.9041230273,2.9991240857,3.2874323198\C,-0.757346
 8074,3.723540147,2.29489308\C,-0.2255057681,2.4376792111,2.2950514489\
 H,-0.151308957,4.5751160634,2.0081633941\H,0.8163381265,2.2975955713,2
 .0170638635\S,-2.7615974586,5.630214947,2.7374637209\O,-4.2349918111,5
 .456953129,2.6328970393\O,-2.1419040591,6.3300569131,1.5796133647\O,-2
 .3102522575,6.1530093682,4.0561520991\C,-0.9894808098,-1.1353294676,3.
 5189410389\C,-0.8490076551,-0.8466691894,5.029436393\H,-0.5130906694,-
 2.0985816981,3.3037536493\H,-2.0470476189,-1.2662950268,3.2675834044\C
 ,-1.3563907992,-1.9450539783,5.9434749709\H,0.2138722052,-0.6744799847
 ,5.2416793957\C,-0.5886958712,-3.0929253403,6.1878624086\C,-1.02426996
 38,-4.0847756314,7.0635485891\H,0.3767254866,-3.200898828,5.6995918177
 \C,-2.2482483751,-3.952480536,7.7200411898\H,-0.4094325611,-4.95390189
 16,7.2665081312\C,-3.0311595119,-2.8267802923,7.4798671999\C,-2.586153
 306,-1.8361820428,6.6014923363\H,-3.9717622698,-2.7241332996,8.0079280
 794\H,-3.1964237249,-0.9512895472,6.4420089305\S,-2.8185782171,-5.2573
 200107,8.8711226157\O,-3.3875382828,-6.3179331929,7.9968409127\O,-1.58
 65454985,-5.6786859158,9.5925396313\O,-3.8280653316,-4.5823993503,9.73
 13686643\H,-1.3613068535,0.0890064276,5.2687019674\\Version=ES64L-G16R
 evA.03\State=1-A\HF=-2800.4738868\RMSD=3.136e-09\RMSF=2.138e-06\Dipole
 =1.3324663,1.4593453,0.2891904\Quadrupole=185.007467,-55.332818,-129.6
 746489,45.9655168,111.5564723,12.5878343\PG=C01 [X(C24H23O9S3)]\\@


 IF I HAVE SEEN FARTHER, IT IS BY STANDING ON THE
 SHOULDERS OF GIANTS. -- SIR ISAAC NEWTON
 Job cpu time:       2 days  1 hours 34 minutes 35.3 seconds.
 Elapsed time:       0 days  2 hours  4 minutes  4.5 seconds.
 File lengths (MBytes):  RWF=    539 Int=      0 D2E=      0 Chk=     74 Scr=      1
 Normal termination of Gaussian 16 at Thu Feb  4 12:59:55 2021.
