 Entering Gaussian System, Link 0=g16
 Input=dvb_syn.com
 Output=dvb_syn.log
 Initial command:
 /opt/apps/gaussian/16rA.03/g16/l1.exe "/tmp/Gau-12597.inp" -scrdir="/tmp/"
 Entering Link 1 = /opt/apps/gaussian/16rA.03/g16/l1.exe PID=     12598.
  
 Copyright (c) 1988,1990,1992,1993,1995,1998,2003,2009,2016,
            Gaussian, Inc.  All Rights Reserved.
  
 This is part of the Gaussian(R) 16 program.  It is based on
 the Gaussian(R) 09 system (copyright 2009, Gaussian, Inc.),
 the Gaussian(R) 03 system (copyright 2003, Gaussian, Inc.),
 the Gaussian(R) 98 system (copyright 1998, Gaussian, Inc.),
 the Gaussian(R) 94 system (copyright 1995, Gaussian, Inc.),
 the Gaussian 92(TM) system (copyright 1992, Gaussian, Inc.),
 the Gaussian 90(TM) system (copyright 1990, Gaussian, Inc.),
 the Gaussian 88(TM) system (copyright 1988, Gaussian, Inc.),
 the Gaussian 86(TM) system (copyright 1986, Carnegie Mellon
 University), and the Gaussian 82(TM) system (copyright 1983,
 Carnegie Mellon University). Gaussian is a federally registered
 trademark of Gaussian, Inc.
  
 This software contains proprietary and confidential information,
 including trade secrets, belonging to Gaussian, Inc.
  
 This software is provided under written license and may be
 used, copied, transmitted, or stored only in accord with that
 written license.
  
 The following legend is applicable only to US Government
 contracts under FAR:
  
                    RESTRICTED RIGHTS LEGEND
  
 Use, reproduction and disclosure by the US Government is
 subject to restrictions as set forth in subparagraphs (a)
 and (c) of the Commercial Computer Software - Restricted
 Rights clause in FAR 52.227-19.
  
 Gaussian, Inc.
 340 Quinnipiac St., Bldg. 40, Wallingford CT 06492
  
  
 ---------------------------------------------------------------
 Warning -- This program may not be used in any manner that
 competes with the business of Gaussian, Inc. or will provide
 assistance to any competitor of Gaussian, Inc.  The licensee
 of this program is prohibited from giving any competitor of
 Gaussian, Inc. access to this program.  By using this program,
 the user acknowledges that Gaussian, Inc. is engaged in the
 business of creating and licensing software in the field of
 computational chemistry and represents and warrants to the
 licensee that it is not a competitor of Gaussian, Inc. and that
 it will not use this program in any manner prohibited above.
 ---------------------------------------------------------------
  

 Cite this work as:
 Gaussian 16, Revision A.03,
 M. J. Frisch, G. W. Trucks, H. B. Schlegel, G. E. Scuseria, 
 M. A. Robb, J. R. Cheeseman, G. Scalmani, V. Barone, 
 G. A. Petersson, H. Nakatsuji, X. Li, M. Caricato, A. V. Marenich, 
 J. Bloino, B. G. Janesko, R. Gomperts, B. Mennucci, H. P. Hratchian, 
 J. V. Ortiz, A. F. Izmaylov, J. L. Sonnenberg, D. Williams-Young, 
 F. Ding, F. Lipparini, F. Egidi, J. Goings, B. Peng, A. Petrone, 
 T. Henderson, D. Ranasinghe, V. G. Zakrzewski, J. Gao, N. Rega, 
 G. Zheng, W. Liang, M. Hada, M. Ehara, K. Toyota, R. Fukuda, 
 J. Hasegawa, M. Ishida, T. Nakajima, Y. Honda, O. Kitao, H. Nakai, 
 T. Vreven, K. Throssell, J. A. Montgomery, Jr., J. E. Peralta, 
 F. Ogliaro, M. J. Bearpark, J. J. Heyd, E. N. Brothers, K. N. Kudin, 
 V. N. Staroverov, T. A. Keith, R. Kobayashi, J. Normand, 
 K. Raghavachari, A. P. Rendell, J. C. Burant, S. S. Iyengar, 
 J. Tomasi, M. Cossi, J. M. Millam, M. Klene, C. Adamo, R. Cammi, 
 J. W. Ochterski, R. L. Martin, K. Morokuma, O. Farkas, 
 J. B. Foresman, and D. J. Fox, Gaussian, Inc., Wallingford CT, 2016.
 
 ******************************************
 Gaussian 16:  ES64L-G16RevA.03 25-Dec-2016
                 4-Feb-2021 
 ******************************************
 %NProcShared=24
 Will use up to   24 processors via shared memory.
 %mem=48GB
 %Chk=dvb_syn.chk
 --------------------------------------------
 #n B3LYP/6-311+g** Opt geom=check guess=read
 --------------------------------------------
 1/18=20,19=15,26=3,29=2,38=1/1,3;
 2/9=110,12=2,40=1/2;
 3/5=4,6=6,7=111,11=2,14=-4,25=1,30=1,71=1,74=-5,116=-2/1,2,3;
 4/5=1/1;
 5/5=2,38=6/2;
 6/7=2,8=2,9=2,10=2,28=1/1;
 7//1,2,3,16;
 1/18=20,19=15,26=3/3(2);
 2/9=110/2;
 99//99;
 2/9=110/2;
 3/5=4,6=6,7=111,11=2,14=-2,25=1,30=1,71=1,74=-5/1,2,3;
 4/5=5,16=3,69=1/1;
 5/5=2,38=5/2;
 7//1,2,3,16;
 1/18=20,19=15,26=3/3(-5);
 2/9=110/2;
 6/7=2,8=2,9=2,10=2,19=2,28=1/1;
 99/9=1/99;
 -------
 dvb_syn
 -------
 Structure from the checkpoint file:  "dvb_syn.chk"
 Charge =  0 Multiplicity = 1
 Redundant internal coordinates found in file.  (old form).
 C,0,-0.4560338005,0.7280950473,-2.543011261
 C,0,-0.5633861525,-0.4123749616,-1.5180319814
 H,0,-0.8536939843,1.6572927312,-2.1199727523
 H,0,-1.0325757632,0.4903156174,-3.4442268938
 C,0,-0.1526659076,-1.7745354684,-2.0701498018
 H,0,-1.6293000319,-0.4988916369,-1.2610276824
 C,0,0.8312839923,-1.9400271515,-3.0551718529
 C,0,1.1919723844,-3.2079314156,-3.5136947411
 H,0,1.3227045053,-1.0702852367,-3.4816428296
 C,0,0.5854258605,-4.3661989568,-3.0097453822
 H,0,1.9578590503,-3.2892303619,-4.2815948122
 C,0,-0.3997380095,-4.2010631326,-2.0279019175
 C,0,-0.7607655384,-2.9346159805,-1.5706731317
 H,0,-0.8981880975,-5.0783310644,-1.6200108176
 H,0,-1.5376424623,-2.844037389,-0.8133008859
 C,0,0.9751582641,-5.7541872089,-3.5003148613
 C,0,0.7103740726,-5.9152689004,-5.0097809197
 H,0,-0.3277169252,-5.6625456826,-5.2511295107
 H,0,0.8908152539,-6.9438350304,-5.3400089343
 H,0,1.3586940067,-5.2566473872,-5.6004168985
 C,0,2.4368814076,-6.089509903,-3.1156189109
 H,0,0.3306701344,-6.4741851494,-2.9749186613
 C,0,2.8489292983,-7.541801056,-3.3826440011
 H,0,3.1155112366,-5.4109495543,-3.6511867653
 H,0,2.5692513356,-5.8696254098,-2.0483499678
 H,0,3.8650943958,-7.7300558071,-3.0176819689
 H,0,2.8344298489,-7.7857320598,-4.4504627617
 H,0,2.1782964646,-8.2440769247,-2.8714418913
 H,0,0.5750171322,0.9312432368,-2.8442593169
 C,0,0.1430239442,-0.1036814765,-0.1640347377
 C,0,1.6860331838,0.0043311707,-0.1778926914
 H,0,-0.3051864185,0.8073657071,0.252136633
 H,0,-0.1261659877,-0.9125497514,0.5282873723
 C,0,2.2497182406,1.319952231,-0.7062543797
 H,0,2.0524458056,-0.7836563095,-0.8487179736
 C,0,1.7336279677,2.576532393,-0.3682855252
 C,0,2.3162065413,3.7576163789,-0.8373716582
 H,0,0.8546624306,2.6513543202,0.2660043572
 C,0,3.4475180106,3.7409741208,-1.6618029846
 H,0,1.8614788475,4.7004600997,-0.5530752049
 C,0,3.9579666928,2.4790289885,-2.008192154
 C,0,3.3772034237,1.3028625624,-1.5423676316
 H,0,4.820275403,2.412336309,-2.6680308633
 H,0,3.8029961626,0.3460938979,-1.8392122923
 C,0,4.1170080307,4.9977617597,-2.2251223984
 C,0,5.6036863774,5.074286926,-1.8161401773
 H,0,6.1617549245,4.2003841842,-2.166242309
 H,0,5.7165787155,5.1212475005,-0.7279615544
 H,0,6.0766903741,5.9653549346,-2.2469780547
 C,0,3.3847824448,6.3293541931,-1.9341776369
 H,0,4.0996655002,4.8814583973,-3.3197139289
 C,0,3.5549542283,6.912949717,-0.5229541761
 H,0,3.7555694415,7.0704016033,-2.6549228618
 H,0,2.3175241623,6.2069284995,-2.1591470709
 H,0,2.9344210254,7.8086686461,-0.4042356192
 H,0,4.5925763272,7.2082051133,-0.334160578
 H,0,3.2697676171,6.2042579717,0.2614831973
 C,0,2.2934910961,-0.3487267628,1.2111995316
 C,0,1.8823237521,0.558851705,2.3885580284
 H,0,3.3878576907,-0.3359919495,1.1261562451
 H,0,2.0149148044,-1.3841460267,1.4506028675
 C,0,2.5276859748,0.134177869,3.6908605137
 H,0,2.1627629186,1.5940638616,2.1619987255
 C,0,3.7810080491,0.6275326469,4.0717245473
 C,0,4.3909664106,0.2090313342,5.2550253174
 H,0,4.2861220896,1.3517267402,3.4354783199
 C,0,3.7736973775,-0.7160673122,6.1057141091
 H,0,5.3641182586,0.6138024941,5.5258494537
 C,0,2.5168289882,-1.2085365108,5.7235617275
 C,0,1.9079750436,-0.7919370017,4.5410880049
 H,0,2.0004780493,-1.924377141,6.3592294429
 H,0,0.9302347734,-1.1893173381,4.2746675355
 C,0,4.4395214461,-1.1515770733,7.4049768548
 C,0,3.6163353347,-0.716039523,8.6327611905
 H,0,4.1395637661,-0.9715220709,9.5621544128
 H,0,3.4388271291,0.3648678187,8.6262602197
 H,0,2.6390436232,-1.213007815,8.6534102536
 C,0,4.7294296446,-2.6695144353,7.4492127885
 H,0,5.4092467926,-0.6355875581,7.4596560757
 C,0,5.687465168,-3.1577278337,6.3585938862
 H,0,5.1482620887,-2.9092400363,8.4364720574
 H,0,3.7811670906,-3.2207589037,7.3806621735
 H,0,5.8706469216,-4.2345356915,6.4489802407
 H,0,5.2837311375,-2.9672410412,5.358523916
 H,0,6.6571227764,-2.6487674383,6.4277198628
 H,0,0.7907264161,0.543281102,2.5013567132
 Recover connectivity data from disk.

 GradGradGradGradGradGradGradGradGradGradGradGradGradGradGradGradGradGrad
 Berny optimization.
 Initialization pass.
                           ----------------------------
                           !    Initial Parameters    !
                           ! (Angstroms and Degrees)  !
 --------------------------                            --------------------------
 ! Name  Definition              Value          Derivative Info.                !
 --------------------------------------------------------------------------------
 ! R1    R(1,2)                  1.5371         estimate D2E/DX2                !
 ! R2    R(1,3)                  1.0957         estimate D2E/DX2                !
 ! R3    R(1,4)                  1.096          estimate D2E/DX2                !
 ! R4    R(1,29)                 1.0932         estimate D2E/DX2                !
 ! R5    R(2,5)                  1.5261         estimate D2E/DX2                !
 ! R6    R(2,6)                  1.0999         estimate D2E/DX2                !
 ! R7    R(2,30)                 1.5581         estimate D2E/DX2                !
 ! R8    R(5,7)                  1.4021         estimate D2E/DX2                !
 ! R9    R(5,13)                 1.4018         estimate D2E/DX2                !
 ! R10   R(7,8)                  1.3957         estimate D2E/DX2                !
 ! R11   R(7,9)                  1.0862         estimate D2E/DX2                !
 ! R12   R(8,10)                 1.4012         estimate D2E/DX2                !
 ! R13   R(8,11)                 1.0876         estimate D2E/DX2                !
 ! R14   R(10,12)                1.4007         estimate D2E/DX2                !
 ! R15   R(10,16)                1.5228         estimate D2E/DX2                !
 ! R16   R(12,13)                1.394          estimate D2E/DX2                !
 ! R17   R(12,14)                1.0883         estimate D2E/DX2                !
 ! R18   R(13,15)                1.0887         estimate D2E/DX2                !
 ! R19   R(16,17)                1.541          estimate D2E/DX2                !
 ! R20   R(16,21)                1.5482         estimate D2E/DX2                !
 ! R21   R(16,22)                1.0999         estimate D2E/DX2                !
 ! R22   R(17,18)                1.0953         estimate D2E/DX2                !
 ! R23   R(17,19)                1.0952         estimate D2E/DX2                !
 ! R24   R(17,20)                1.0968         estimate D2E/DX2                !
 ! R25   R(21,23)                1.533          estimate D2E/DX2                !
 ! R26   R(21,24)                1.099          estimate D2E/DX2                !
 ! R27   R(21,25)                1.0977         estimate D2E/DX2                !
 ! R28   R(23,26)                1.096          estimate D2E/DX2                !
 ! R29   R(23,27)                1.0954         estimate D2E/DX2                !
 ! R30   R(23,28)                1.0974         estimate D2E/DX2                !
 ! R31   R(30,31)                1.5468         estimate D2E/DX2                !
 ! R32   R(30,32)                1.0973         estimate D2E/DX2                !
 ! R33   R(30,33)                1.0982         estimate D2E/DX2                !
 ! R34   R(31,34)                1.5257         estimate D2E/DX2                !
 ! R35   R(31,35)                1.0978         estimate D2E/DX2                !
 ! R36   R(31,58)                1.5567         estimate D2E/DX2                !
 ! R37   R(34,36)                1.3998         estimate D2E/DX2                !
 ! R38   R(34,42)                1.4038         estimate D2E/DX2                !
 ! R39   R(36,37)                1.398          estimate D2E/DX2                !
 ! R40   R(36,38)                1.0865         estimate D2E/DX2                !
 ! R41   R(37,39)                1.3999         estimate D2E/DX2                !
 ! R42   R(37,40)                1.0847         estimate D2E/DX2                !
 ! R43   R(39,41)                1.4047         estimate D2E/DX2                !
 ! R44   R(39,45)                1.5314         estimate D2E/DX2                !
 ! R45   R(41,42)                1.392          estimate D2E/DX2                !
 ! R46   R(41,43)                1.0878         estimate D2E/DX2                !
 ! R47   R(42,44)                1.0885         estimate D2E/DX2                !
 ! R48   R(45,46)                1.5438         estimate D2E/DX2                !
 ! R49   R(45,50)                1.5472         estimate D2E/DX2                !
 ! R50   R(45,51)                1.1009         estimate D2E/DX2                !
 ! R51   R(46,47)                1.0944         estimate D2E/DX2                !
 ! R52   R(46,48)                1.095          estimate D2E/DX2                !
 ! R53   R(46,49)                1.097          estimate D2E/DX2                !
 ! R54   R(50,52)                1.5366         estimate D2E/DX2                !
 ! R55   R(50,53)                1.0982         estimate D2E/DX2                !
 ! R56   R(50,54)                1.0976         estimate D2E/DX2                !
 ! R57   R(52,55)                1.0961         estimate D2E/DX2                !
 ! R58   R(52,56)                1.0952         estimate D2E/DX2                !
 ! R59   R(52,57)                1.095          estimate D2E/DX2                !
 ! R60   R(58,59)                1.5424         estimate D2E/DX2                !
 ! R61   R(58,60)                1.0977         estimate D2E/DX2                !
 ! R62   R(58,61)                1.0986         estimate D2E/DX2                !
 ! R63   R(59,62)                1.5142         estimate D2E/DX2                !
 ! R64   R(59,63)                1.0962         estimate D2E/DX2                !
 ! R65   R(59,86)                1.0975         estimate D2E/DX2                !
 ! R66   R(62,64)                1.3997         estimate D2E/DX2                !
 ! R67   R(62,70)                1.4016         estimate D2E/DX2                !
 ! R68   R(64,65)                1.3955         estimate D2E/DX2                !
 ! R69   R(64,66)                1.0883         estimate D2E/DX2                !
 ! R70   R(65,67)                1.4002         estimate D2E/DX2                !
 ! R71   R(65,68)                1.0882         estimate D2E/DX2                !
 ! R72   R(67,69)                1.403          estimate D2E/DX2                !
 ! R73   R(67,73)                1.5235         estimate D2E/DX2                !
 ! R74   R(69,70)                1.3937         estimate D2E/DX2                !
 ! R75   R(69,71)                1.0877         estimate D2E/DX2                !
 ! R76   R(70,72)                1.0885         estimate D2E/DX2                !
 ! R77   R(73,74)                1.541          estimate D2E/DX2                !
 ! R78   R(73,78)                1.546          estimate D2E/DX2                !
 ! R79   R(73,79)                1.0998         estimate D2E/DX2                !
 ! R80   R(74,75)                1.0967         estimate D2E/DX2                !
 ! R81   R(74,76)                1.0954         estimate D2E/DX2                !
 ! R82   R(74,77)                1.0966         estimate D2E/DX2                !
 ! R83   R(78,80)                1.5315         estimate D2E/DX2                !
 ! R84   R(78,81)                1.0989         estimate D2E/DX2                !
 ! R85   R(78,82)                1.099          estimate D2E/DX2                !
 ! R86   R(80,83)                1.096          estimate D2E/DX2                !
 ! R87   R(80,84)                1.0952         estimate D2E/DX2                !
 ! R88   R(80,85)                1.0973         estimate D2E/DX2                !
 ! A1    A(2,1,3)              110.268          estimate D2E/DX2                !
 ! A2    A(2,1,4)              110.5247         estimate D2E/DX2                !
 ! A3    A(2,1,29)             112.7987         estimate D2E/DX2                !
 ! A4    A(3,1,4)              108.093          estimate D2E/DX2                !
 ! A5    A(3,1,29)             106.9241         estimate D2E/DX2                !
 ! A6    A(4,1,29)             108.0515         estimate D2E/DX2                !
 ! A7    A(1,2,5)              113.716          estimate D2E/DX2                !
 ! A8    A(1,2,6)              106.3712         estimate D2E/DX2                !
 ! A9    A(1,2,30)             113.6288         estimate D2E/DX2                !
 ! A10   A(5,2,6)              105.9708         estimate D2E/DX2                !
 ! A11   A(5,2,30)             111.6672         estimate D2E/DX2                !
 ! A12   A(6,2,30)             104.5907         estimate D2E/DX2                !
 ! A13   A(2,5,7)              123.2567         estimate D2E/DX2                !
 ! A14   A(2,5,13)             119.5383         estimate D2E/DX2                !
 ! A15   A(7,5,13)             117.1986         estimate D2E/DX2                !
 ! A16   A(5,7,8)              121.2919         estimate D2E/DX2                !
 ! A17   A(5,7,9)              119.9226         estimate D2E/DX2                !
 ! A18   A(8,7,9)              118.7838         estimate D2E/DX2                !
 ! A19   A(7,8,10)             121.3933         estimate D2E/DX2                !
 ! A20   A(7,8,11)             118.8067         estimate D2E/DX2                !
 ! A21   A(10,8,11)            119.7995         estimate D2E/DX2                !
 ! A22   A(8,10,12)            117.3299         estimate D2E/DX2                !
 ! A23   A(8,10,16)            121.7873         estimate D2E/DX2                !
 ! A24   A(12,10,16)           120.8826         estimate D2E/DX2                !
 ! A25   A(10,12,13)           121.2778         estimate D2E/DX2                !
 ! A26   A(10,12,14)           119.3293         estimate D2E/DX2                !
 ! A27   A(13,12,14)           119.3911         estimate D2E/DX2                !
 ! A28   A(5,13,12)            121.5079         estimate D2E/DX2                !
 ! A29   A(5,13,15)            119.2456         estimate D2E/DX2                !
 ! A30   A(12,13,15)           119.2451         estimate D2E/DX2                !
 ! A31   A(10,16,17)           111.5219         estimate D2E/DX2                !
 ! A32   A(10,16,21)           111.0376         estimate D2E/DX2                !
 ! A33   A(10,16,22)           107.0253         estimate D2E/DX2                !
 ! A34   A(17,16,21)           112.5186         estimate D2E/DX2                !
 ! A35   A(17,16,22)           107.3855         estimate D2E/DX2                !
 ! A36   A(21,16,22)           107.022          estimate D2E/DX2                !
 ! A37   A(16,17,18)           110.7673         estimate D2E/DX2                !
 ! A38   A(16,17,19)           111.4205         estimate D2E/DX2                !
 ! A39   A(16,17,20)           111.2947         estimate D2E/DX2                !
 ! A40   A(18,17,19)           107.8415         estimate D2E/DX2                !
 ! A41   A(18,17,20)           107.6383         estimate D2E/DX2                !
 ! A42   A(19,17,20)           107.7094         estimate D2E/DX2                !
 ! A43   A(16,21,23)           114.5603         estimate D2E/DX2                !
 ! A44   A(16,21,24)           109.1581         estimate D2E/DX2                !
 ! A45   A(16,21,25)           108.1828         estimate D2E/DX2                !
 ! A46   A(23,21,24)           109.5152         estimate D2E/DX2                !
 ! A47   A(23,21,25)           109.0688         estimate D2E/DX2                !
 ! A48   A(24,21,25)           106.0019         estimate D2E/DX2                !
 ! A49   A(21,23,26)           110.7269         estimate D2E/DX2                !
 ! A50   A(21,23,27)           112.1594         estimate D2E/DX2                !
 ! A51   A(21,23,28)           111.1522         estimate D2E/DX2                !
 ! A52   A(26,23,27)           107.375          estimate D2E/DX2                !
 ! A53   A(26,23,28)           107.5512         estimate D2E/DX2                !
 ! A54   A(27,23,28)           107.668          estimate D2E/DX2                !
 ! A55   A(2,30,31)            117.278          estimate D2E/DX2                !
 ! A56   A(2,30,32)            107.9923         estimate D2E/DX2                !
 ! A57   A(2,30,33)            106.9048         estimate D2E/DX2                !
 ! A58   A(31,30,32)           110.663          estimate D2E/DX2                !
 ! A59   A(31,30,33)           107.5531         estimate D2E/DX2                !
 ! A60   A(32,30,33)           105.8011         estimate D2E/DX2                !
 ! A61   A(30,31,34)           115.5855         estimate D2E/DX2                !
 ! A62   A(30,31,35)           106.7557         estimate D2E/DX2                !
 ! A63   A(30,31,58)           111.434          estimate D2E/DX2                !
 ! A64   A(34,31,35)           106.5002         estimate D2E/DX2                !
 ! A65   A(34,31,58)           111.1264         estimate D2E/DX2                !
 ! A66   A(35,31,58)           104.6098         estimate D2E/DX2                !
 ! A67   A(31,34,36)           123.6579         estimate D2E/DX2                !
 ! A68   A(31,34,42)           119.5057         estimate D2E/DX2                !
 ! A69   A(36,34,42)           116.7977         estimate D2E/DX2                !
 ! A70   A(34,36,37)           121.5827         estimate D2E/DX2                !
 ! A71   A(34,36,38)           120.0672         estimate D2E/DX2                !
 ! A72   A(37,36,38)           118.3481         estimate D2E/DX2                !
 ! A73   A(36,37,39)           121.6224         estimate D2E/DX2                !
 ! A74   A(36,37,40)           118.1455         estimate D2E/DX2                !
 ! A75   A(39,37,40)           120.2295         estimate D2E/DX2                !
 ! A76   A(37,39,41)           116.7163         estimate D2E/DX2                !
 ! A77   A(37,39,45)           124.0678         estimate D2E/DX2                !
 ! A78   A(41,39,45)           119.1917         estimate D2E/DX2                !
 ! A79   A(39,41,42)           121.666          estimate D2E/DX2                !
 ! A80   A(39,41,43)           119.519          estimate D2E/DX2                !
 ! A81   A(42,41,43)           118.8093         estimate D2E/DX2                !
 ! A82   A(34,42,41)           121.6099         estimate D2E/DX2                !
 ! A83   A(34,42,44)           119.1643         estimate D2E/DX2                !
 ! A84   A(41,42,44)           119.2244         estimate D2E/DX2                !
 ! A85   A(39,45,46)           111.3607         estimate D2E/DX2                !
 ! A86   A(39,45,50)           115.4832         estimate D2E/DX2                !
 ! A87   A(39,45,51)           105.7929         estimate D2E/DX2                !
 ! A88   A(46,45,50)           111.3005         estimate D2E/DX2                !
 ! A89   A(46,45,51)           106.4877         estimate D2E/DX2                !
 ! A90   A(50,45,51)           105.6899         estimate D2E/DX2                !
 ! A91   A(45,46,47)           111.5141         estimate D2E/DX2                !
 ! A92   A(45,46,48)           111.3872         estimate D2E/DX2                !
 ! A93   A(45,46,49)           110.5761         estimate D2E/DX2                !
 ! A94   A(47,46,48)           107.4321         estimate D2E/DX2                !
 ! A95   A(47,46,49)           107.6448         estimate D2E/DX2                !
 ! A96   A(48,46,49)           108.1198         estimate D2E/DX2                !
 ! A97   A(45,50,52)           116.5613         estimate D2E/DX2                !
 ! A98   A(45,50,53)           107.3096         estimate D2E/DX2                !
 ! A99   A(45,50,54)           109.0044         estimate D2E/DX2                !
 ! A100  A(52,50,53)           108.0032         estimate D2E/DX2                !
 ! A101  A(52,50,54)           109.7735         estimate D2E/DX2                !
 ! A102  A(53,50,54)           105.6076         estimate D2E/DX2                !
 ! A103  A(50,52,55)           110.3125         estimate D2E/DX2                !
 ! A104  A(50,52,56)           111.4465         estimate D2E/DX2                !
 ! A105  A(50,52,57)           112.5382         estimate D2E/DX2                !
 ! A106  A(55,52,56)           107.3005         estimate D2E/DX2                !
 ! A107  A(55,52,57)           107.6898         estimate D2E/DX2                !
 ! A108  A(56,52,57)           107.3227         estimate D2E/DX2                !
 ! A109  A(31,58,59)           116.3389         estimate D2E/DX2                !
 ! A110  A(31,58,60)           108.4977         estimate D2E/DX2                !
 ! A111  A(31,58,61)           108.0142         estimate D2E/DX2                !
 ! A112  A(59,58,60)           108.5463         estimate D2E/DX2                !
 ! A113  A(59,58,61)           108.7012         estimate D2E/DX2                !
 ! A114  A(60,58,61)           106.296          estimate D2E/DX2                !
 ! A115  A(58,59,62)           112.2016         estimate D2E/DX2                !
 ! A116  A(58,59,63)           109.2523         estimate D2E/DX2                !
 ! A117  A(58,59,86)           109.5875         estimate D2E/DX2                !
 ! A118  A(62,59,63)           109.486          estimate D2E/DX2                !
 ! A119  A(62,59,86)           109.3618         estimate D2E/DX2                !
 ! A120  A(63,59,86)           106.8034         estimate D2E/DX2                !
 ! A121  A(59,62,64)           121.117          estimate D2E/DX2                !
 ! A122  A(59,62,70)           121.2365         estimate D2E/DX2                !
 ! A123  A(64,62,70)           117.627          estimate D2E/DX2                !
 ! A124  A(62,64,65)           121.0906         estimate D2E/DX2                !
 ! A125  A(62,64,66)           119.4094         estimate D2E/DX2                !
 ! A126  A(65,64,66)           119.4998         estimate D2E/DX2                !
 ! A127  A(64,65,67)           121.3742         estimate D2E/DX2                !
 ! A128  A(64,65,68)           119.364          estimate D2E/DX2                !
 ! A129  A(67,65,68)           119.2609         estimate D2E/DX2                !
 ! A130  A(65,67,69)           117.4757         estimate D2E/DX2                !
 ! A131  A(65,67,73)           120.9529         estimate D2E/DX2                !
 ! A132  A(69,67,73)           121.566          estimate D2E/DX2                !
 ! A133  A(67,69,70)           121.1674         estimate D2E/DX2                !
 ! A134  A(67,69,71)           119.8088         estimate D2E/DX2                !
 ! A135  A(70,69,71)           119.023          estimate D2E/DX2                !
 ! A136  A(62,70,69)           121.2651         estimate D2E/DX2                !
 ! A137  A(62,70,72)           119.3327         estimate D2E/DX2                !
 ! A138  A(69,70,72)           119.4015         estimate D2E/DX2                !
 ! A139  A(67,73,74)           111.4207         estimate D2E/DX2                !
 ! A140  A(67,73,78)           112.7695         estimate D2E/DX2                !
 ! A141  A(67,73,79)           107.075          estimate D2E/DX2                !
 ! A142  A(74,73,78)           110.7854         estimate D2E/DX2                !
 ! A143  A(74,73,79)           107.3846         estimate D2E/DX2                !
 ! A144  A(78,73,79)           107.0903         estimate D2E/DX2                !
 ! A145  A(73,74,75)           110.7617         estimate D2E/DX2                !
 ! A146  A(73,74,76)           111.1445         estimate D2E/DX2                !
 ! A147  A(73,74,77)           111.2835         estimate D2E/DX2                !
 ! A148  A(75,74,76)           108.1922         estimate D2E/DX2                !
 ! A149  A(75,74,77)           107.6771         estimate D2E/DX2                !
 ! A150  A(76,74,77)           107.6313         estimate D2E/DX2                !
 ! A151  A(73,78,80)           114.1991         estimate D2E/DX2                !
 ! A152  A(73,78,81)           108.1417         estimate D2E/DX2                !
 ! A153  A(73,78,82)           109.202          estimate D2E/DX2                !
 ! A154  A(80,78,81)           109.3783         estimate D2E/DX2                !
 ! A155  A(80,78,82)           109.5988         estimate D2E/DX2                !
 ! A156  A(81,78,82)           105.9908         estimate D2E/DX2                !
 ! A157  A(78,80,83)           111.0393         estimate D2E/DX2                !
 ! A158  A(78,80,84)           111.3592         estimate D2E/DX2                !
 ! A159  A(78,80,85)           111.1036         estimate D2E/DX2                !
 ! A160  A(83,80,84)           107.9269         estimate D2E/DX2                !
 ! A161  A(83,80,85)           107.6268         estimate D2E/DX2                !
 ! A162  A(84,80,85)           107.6147         estimate D2E/DX2                !
 ! D1    D(3,1,2,5)            174.5546         estimate D2E/DX2                !
 ! D2    D(3,1,2,6)             58.3052         estimate D2E/DX2                !
 ! D3    D(3,1,2,30)           -56.2207         estimate D2E/DX2                !
 ! D4    D(4,1,2,5)             55.0991         estimate D2E/DX2                !
 ! D5    D(4,1,2,6)            -61.1503         estimate D2E/DX2                !
 ! D6    D(4,1,2,30)          -175.6761         estimate D2E/DX2                !
 ! D7    D(29,1,2,5)           -65.984          estimate D2E/DX2                !
 ! D8    D(29,1,2,6)           177.7666         estimate D2E/DX2                !
 ! D9    D(29,1,2,30)           63.2408         estimate D2E/DX2                !
 ! D10   D(1,2,5,7)             31.8301         estimate D2E/DX2                !
 ! D11   D(1,2,5,13)          -149.1159         estimate D2E/DX2                !
 ! D12   D(6,2,5,7)            148.3137         estimate D2E/DX2                !
 ! D13   D(6,2,5,13)           -32.6323         estimate D2E/DX2                !
 ! D14   D(30,2,5,7)           -98.38           estimate D2E/DX2                !
 ! D15   D(30,2,5,13)           80.6741         estimate D2E/DX2                !
 ! D16   D(1,2,30,31)          -67.5356         estimate D2E/DX2                !
 ! D17   D(1,2,30,32)           58.2607         estimate D2E/DX2                !
 ! D18   D(1,2,30,33)          171.7096         estimate D2E/DX2                !
 ! D19   D(5,2,30,31)           62.7196         estimate D2E/DX2                !
 ! D20   D(5,2,30,32)         -171.4841         estimate D2E/DX2                !
 ! D21   D(5,2,30,33)          -58.0351         estimate D2E/DX2                !
 ! D22   D(6,2,30,31)          176.8835         estimate D2E/DX2                !
 ! D23   D(6,2,30,32)          -57.3202         estimate D2E/DX2                !
 ! D24   D(6,2,30,33)           56.1288         estimate D2E/DX2                !
 ! D25   D(2,5,7,8)            178.8333         estimate D2E/DX2                !
 ! D26   D(2,5,7,9)             -1.659          estimate D2E/DX2                !
 ! D27   D(13,5,7,8)            -0.2414         estimate D2E/DX2                !
 ! D28   D(13,5,7,9)           179.2663         estimate D2E/DX2                !
 ! D29   D(2,5,13,12)         -178.8169         estimate D2E/DX2                !
 ! D30   D(2,5,13,15)            1.6128         estimate D2E/DX2                !
 ! D31   D(7,5,13,12)            0.2937         estimate D2E/DX2                !
 ! D32   D(7,5,13,15)         -179.2765         estimate D2E/DX2                !
 ! D33   D(5,7,8,10)             0.0522         estimate D2E/DX2                !
 ! D34   D(5,7,8,11)           179.7859         estimate D2E/DX2                !
 ! D35   D(9,7,8,10)          -179.4609         estimate D2E/DX2                !
 ! D36   D(9,7,8,11)             0.2727         estimate D2E/DX2                !
 ! D37   D(7,8,10,12)            0.092          estimate D2E/DX2                !
 ! D38   D(7,8,10,16)         -179.8006         estimate D2E/DX2                !
 ! D39   D(11,8,10,12)        -179.639          estimate D2E/DX2                !
 ! D40   D(11,8,10,16)           0.4684         estimate D2E/DX2                !
 ! D41   D(8,10,12,13)          -0.0402         estimate D2E/DX2                !
 ! D42   D(8,10,12,14)         179.4756         estimate D2E/DX2                !
 ! D43   D(16,10,12,13)        179.8534         estimate D2E/DX2                !
 ! D44   D(16,10,12,14)         -0.6308         estimate D2E/DX2                !
 ! D45   D(8,10,16,17)         -60.8841         estimate D2E/DX2                !
 ! D46   D(8,10,16,21)          65.4692         estimate D2E/DX2                !
 ! D47   D(8,10,16,22)        -178.0566         estimate D2E/DX2                !
 ! D48   D(12,10,16,17)        119.2271         estimate D2E/DX2                !
 ! D49   D(12,10,16,21)       -114.4196         estimate D2E/DX2                !
 ! D50   D(12,10,16,22)          2.0546         estimate D2E/DX2                !
 ! D51   D(10,12,13,5)          -0.1579         estimate D2E/DX2                !
 ! D52   D(10,12,13,15)        179.4124         estimate D2E/DX2                !
 ! D53   D(14,12,13,5)        -179.6734         estimate D2E/DX2                !
 ! D54   D(14,12,13,15)         -0.1031         estimate D2E/DX2                !
 ! D55   D(10,16,17,18)        -53.9459         estimate D2E/DX2                !
 ! D56   D(10,16,17,19)       -173.9959         estimate D2E/DX2                !
 ! D57   D(10,16,17,20)         65.7645         estimate D2E/DX2                !
 ! D58   D(21,16,17,18)       -179.4831         estimate D2E/DX2                !
 ! D59   D(21,16,17,19)         60.4668         estimate D2E/DX2                !
 ! D60   D(21,16,17,20)        -59.7728         estimate D2E/DX2                !
 ! D61   D(22,16,17,18)         63.0083         estimate D2E/DX2                !
 ! D62   D(22,16,17,19)        -57.0418         estimate D2E/DX2                !
 ! D63   D(22,16,17,20)       -177.2813         estimate D2E/DX2                !
 ! D64   D(10,16,21,23)        171.2931         estimate D2E/DX2                !
 ! D65   D(10,16,21,24)        -65.505          estimate D2E/DX2                !
 ! D66   D(10,16,21,25)         49.4104         estimate D2E/DX2                !
 ! D67   D(17,16,21,23)        -62.9068         estimate D2E/DX2                !
 ! D68   D(17,16,21,24)         60.2951         estimate D2E/DX2                !
 ! D69   D(17,16,21,25)        175.2104         estimate D2E/DX2                !
 ! D70   D(22,16,21,23)         54.8169         estimate D2E/DX2                !
 ! D71   D(22,16,21,24)        178.0188         estimate D2E/DX2                !
 ! D72   D(22,16,21,25)        -67.0659         estimate D2E/DX2                !
 ! D73   D(16,21,23,26)       -175.6215         estimate D2E/DX2                !
 ! D74   D(16,21,23,27)         64.4535         estimate D2E/DX2                !
 ! D75   D(16,21,23,28)        -56.1409         estimate D2E/DX2                !
 ! D76   D(24,21,23,26)         61.3688         estimate D2E/DX2                !
 ! D77   D(24,21,23,27)        -58.5562         estimate D2E/DX2                !
 ! D78   D(24,21,23,28)       -179.1506         estimate D2E/DX2                !
 ! D79   D(25,21,23,26)        -54.2234         estimate D2E/DX2                !
 ! D80   D(25,21,23,27)       -174.1483         estimate D2E/DX2                !
 ! D81   D(25,21,23,28)         65.2572         estimate D2E/DX2                !
 ! D82   D(2,30,31,34)          78.449          estimate D2E/DX2                !
 ! D83   D(2,30,31,35)         -39.7814         estimate D2E/DX2                !
 ! D84   D(2,30,31,58)        -153.4337         estimate D2E/DX2                !
 ! D85   D(32,30,31,34)        -46.0158         estimate D2E/DX2                !
 ! D86   D(32,30,31,35)       -164.2462         estimate D2E/DX2                !
 ! D87   D(32,30,31,58)         82.1014         estimate D2E/DX2                !
 ! D88   D(33,30,31,34)       -161.1364         estimate D2E/DX2                !
 ! D89   D(33,30,31,35)         80.6332         estimate D2E/DX2                !
 ! D90   D(33,30,31,58)        -33.0192         estimate D2E/DX2                !
 ! D91   D(30,31,34,36)         43.275          estimate D2E/DX2                !
 ! D92   D(30,31,34,42)       -139.0618         estimate D2E/DX2                !
 ! D93   D(35,31,34,36)        161.647          estimate D2E/DX2                !
 ! D94   D(35,31,34,42)        -20.6897         estimate D2E/DX2                !
 ! D95   D(58,31,34,36)        -84.9945         estimate D2E/DX2                !
 ! D96   D(58,31,34,42)         92.6687         estimate D2E/DX2                !
 ! D97   D(30,31,58,59)        -61.8313         estimate D2E/DX2                !
 ! D98   D(30,31,58,60)        175.4932         estimate D2E/DX2                !
 ! D99   D(30,31,58,61)         60.6628         estimate D2E/DX2                !
 ! D100  D(34,31,58,59)         68.6399         estimate D2E/DX2                !
 ! D101  D(34,31,58,60)        -54.0356         estimate D2E/DX2                !
 ! D102  D(34,31,58,61)       -168.866          estimate D2E/DX2                !
 ! D103  D(35,31,58,59)       -176.817          estimate D2E/DX2                !
 ! D104  D(35,31,58,60)         60.5075         estimate D2E/DX2                !
 ! D105  D(35,31,58,61)        -54.3229         estimate D2E/DX2                !
 ! D106  D(31,34,36,37)        177.5061         estimate D2E/DX2                !
 ! D107  D(31,34,36,38)         -3.0279         estimate D2E/DX2                !
 ! D108  D(42,34,36,37)         -0.2155         estimate D2E/DX2                !
 ! D109  D(42,34,36,38)        179.2505         estimate D2E/DX2                !
 ! D110  D(31,34,42,41)       -177.5371         estimate D2E/DX2                !
 ! D111  D(31,34,42,44)          2.9117         estimate D2E/DX2                !
 ! D112  D(36,34,42,41)          0.2839         estimate D2E/DX2                !
 ! D113  D(36,34,42,44)       -179.2673         estimate D2E/DX2                !
 ! D114  D(34,36,37,39)         -0.335          estimate D2E/DX2                !
 ! D115  D(34,36,37,40)        179.0828         estimate D2E/DX2                !
 ! D116  D(38,36,37,39)       -179.8098         estimate D2E/DX2                !
 ! D117  D(38,36,37,40)         -0.392          estimate D2E/DX2                !
 ! D118  D(36,37,39,41)          0.7881         estimate D2E/DX2                !
 ! D119  D(36,37,39,45)        178.978          estimate D2E/DX2                !
 ! D120  D(40,37,39,41)       -178.6178         estimate D2E/DX2                !
 ! D121  D(40,37,39,45)         -0.4278         estimate D2E/DX2                !
 ! D122  D(37,39,41,42)         -0.72           estimate D2E/DX2                !
 ! D123  D(37,39,41,43)        178.4084         estimate D2E/DX2                !
 ! D124  D(45,39,41,42)       -179.0025         estimate D2E/DX2                !
 ! D125  D(45,39,41,43)          0.1259         estimate D2E/DX2                !
 ! D126  D(37,39,45,46)        122.7701         estimate D2E/DX2                !
 ! D127  D(37,39,45,50)         -5.4365         estimate D2E/DX2                !
 ! D128  D(37,39,45,51)       -121.9324         estimate D2E/DX2                !
 ! D129  D(41,39,45,46)        -59.0819         estimate D2E/DX2                !
 ! D130  D(41,39,45,50)        172.7115         estimate D2E/DX2                !
 ! D131  D(41,39,45,51)         56.2156         estimate D2E/DX2                !
 ! D132  D(39,41,42,34)          0.1944         estimate D2E/DX2                !
 ! D133  D(39,41,42,44)        179.7454         estimate D2E/DX2                !
 ! D134  D(43,41,42,34)       -178.94           estimate D2E/DX2                !
 ! D135  D(43,41,42,44)          0.6109         estimate D2E/DX2                !
 ! D136  D(39,45,46,47)         58.84           estimate D2E/DX2                !
 ! D137  D(39,45,46,48)        -61.1736         estimate D2E/DX2                !
 ! D138  D(39,45,46,49)        178.5756         estimate D2E/DX2                !
 ! D139  D(50,45,46,47)       -170.7431         estimate D2E/DX2                !
 ! D140  D(50,45,46,48)         69.2433         estimate D2E/DX2                !
 ! D141  D(50,45,46,49)        -51.0075         estimate D2E/DX2                !
 ! D142  D(51,45,46,47)        -56.0279         estimate D2E/DX2                !
 ! D143  D(51,45,46,48)       -176.0416         estimate D2E/DX2                !
 ! D144  D(51,45,46,49)         63.7077         estimate D2E/DX2                !
 ! D145  D(39,45,50,52)         77.8377         estimate D2E/DX2                !
 ! D146  D(39,45,50,53)       -160.9822         estimate D2E/DX2                !
 ! D147  D(39,45,50,54)        -47.0665         estimate D2E/DX2                !
 ! D148  D(46,45,50,52)        -50.3988         estimate D2E/DX2                !
 ! D149  D(46,45,50,53)         70.7813         estimate D2E/DX2                !
 ! D150  D(46,45,50,54)       -175.3029         estimate D2E/DX2                !
 ! D151  D(51,45,50,52)       -165.6083         estimate D2E/DX2                !
 ! D152  D(51,45,50,53)        -44.4281         estimate D2E/DX2                !
 ! D153  D(51,45,50,54)         69.4876         estimate D2E/DX2                !
 ! D154  D(45,50,52,55)       -175.5808         estimate D2E/DX2                !
 ! D155  D(45,50,52,56)         65.3345         estimate D2E/DX2                !
 ! D156  D(45,50,52,57)        -55.288          estimate D2E/DX2                !
 ! D157  D(53,50,52,55)         63.6066         estimate D2E/DX2                !
 ! D158  D(53,50,52,56)        -55.4781         estimate D2E/DX2                !
 ! D159  D(53,50,52,57)       -176.1006         estimate D2E/DX2                !
 ! D160  D(54,50,52,55)        -51.0675         estimate D2E/DX2                !
 ! D161  D(54,50,52,56)       -170.1521         estimate D2E/DX2                !
 ! D162  D(54,50,52,57)         69.2254         estimate D2E/DX2                !
 ! D163  D(31,58,59,62)       -179.8733         estimate D2E/DX2                !
 ! D164  D(31,58,59,63)        -58.2608         estimate D2E/DX2                !
 ! D165  D(31,58,59,86)         58.4382         estimate D2E/DX2                !
 ! D166  D(60,58,59,62)        -57.2233         estimate D2E/DX2                !
 ! D167  D(60,58,59,63)         64.3892         estimate D2E/DX2                !
 ! D168  D(60,58,59,86)       -178.9118         estimate D2E/DX2                !
 ! D169  D(61,58,59,62)         57.9929         estimate D2E/DX2                !
 ! D170  D(61,58,59,63)        179.6054         estimate D2E/DX2                !
 ! D171  D(61,58,59,86)        -63.6956         estimate D2E/DX2                !
 ! D172  D(58,59,62,64)         88.6358         estimate D2E/DX2                !
 ! D173  D(58,59,62,70)        -89.7216         estimate D2E/DX2                !
 ! D174  D(63,59,62,64)        -32.8429         estimate D2E/DX2                !
 ! D175  D(63,59,62,70)        148.7997         estimate D2E/DX2                !
 ! D176  D(86,59,62,64)       -149.5467         estimate D2E/DX2                !
 ! D177  D(86,59,62,70)         32.0959         estimate D2E/DX2                !
 ! D178  D(59,62,64,65)       -178.3035         estimate D2E/DX2                !
 ! D179  D(59,62,64,66)          1.8847         estimate D2E/DX2                !
 ! D180  D(70,62,64,65)          0.1113         estimate D2E/DX2                !
 ! D181  D(70,62,64,66)       -179.7005         estimate D2E/DX2                !
 ! D182  D(59,62,70,69)        178.3737         estimate D2E/DX2                !
 ! D183  D(59,62,70,72)         -1.9335         estimate D2E/DX2                !
 ! D184  D(64,62,70,69)         -0.0392         estimate D2E/DX2                !
 ! D185  D(64,62,70,72)        179.6537         estimate D2E/DX2                !
 ! D186  D(62,64,65,67)         -0.111          estimate D2E/DX2                !
 ! D187  D(62,64,65,68)       -179.762          estimate D2E/DX2                !
 ! D188  D(66,64,65,67)        179.7007         estimate D2E/DX2                !
 ! D189  D(66,64,65,68)          0.0497         estimate D2E/DX2                !
 ! D190  D(64,65,67,69)          0.0333         estimate D2E/DX2                !
 ! D191  D(64,65,67,73)       -179.1358         estimate D2E/DX2                !
 ! D192  D(68,65,67,69)        179.6847         estimate D2E/DX2                !
 ! D193  D(68,65,67,73)          0.5156         estimate D2E/DX2                !
 ! D194  D(65,67,69,70)          0.0391         estimate D2E/DX2                !
 ! D195  D(65,67,69,71)       -179.6343         estimate D2E/DX2                !
 ! D196  D(73,67,69,70)        179.2027         estimate D2E/DX2                !
 ! D197  D(73,67,69,71)         -0.4707         estimate D2E/DX2                !
 ! D198  D(65,67,73,74)        115.6017         estimate D2E/DX2                !
 ! D199  D(65,67,73,78)       -119.0824         estimate D2E/DX2                !
 ! D200  D(65,67,73,79)         -1.5442         estimate D2E/DX2                !
 ! D201  D(69,67,73,74)        -63.533          estimate D2E/DX2                !
 ! D202  D(69,67,73,78)         61.7829         estimate D2E/DX2                !
 ! D203  D(69,67,73,79)        179.321          estimate D2E/DX2                !
 ! D204  D(67,69,70,62)         -0.036          estimate D2E/DX2                !
 ! D205  D(67,69,70,72)       -179.7287         estimate D2E/DX2                !
 ! D206  D(71,69,70,62)        179.6399         estimate D2E/DX2                !
 ! D207  D(71,69,70,72)         -0.0528         estimate D2E/DX2                !
 ! D208  D(67,73,74,75)       -175.9722         estimate D2E/DX2                !
 ! D209  D(67,73,74,76)        -55.6667         estimate D2E/DX2                !
 ! D210  D(67,73,74,77)         64.2797         estimate D2E/DX2                !
 ! D211  D(78,73,74,75)         57.6154         estimate D2E/DX2                !
 ! D212  D(78,73,74,76)        177.9209         estimate D2E/DX2                !
 ! D213  D(78,73,74,77)        -62.1328         estimate D2E/DX2                !
 ! D214  D(79,73,74,75)        -59.0143         estimate D2E/DX2                !
 ! D215  D(79,73,74,76)         61.2912         estimate D2E/DX2                !
 ! D216  D(79,73,74,77)       -178.7624         estimate D2E/DX2                !
 ! D217  D(67,73,78,80)         61.4908         estimate D2E/DX2                !
 ! D218  D(67,73,78,81)       -176.5004         estimate D2E/DX2                !
 ! D219  D(67,73,78,82)        -61.5972         estimate D2E/DX2                !
 ! D220  D(74,73,78,80)       -172.8494         estimate D2E/DX2                !
 ! D221  D(74,73,78,81)        -50.8406         estimate D2E/DX2                !
 ! D222  D(74,73,78,82)         64.0626         estimate D2E/DX2                !
 ! D223  D(79,73,78,80)        -56.0383         estimate D2E/DX2                !
 ! D224  D(79,73,78,81)         65.9704         estimate D2E/DX2                !
 ! D225  D(79,73,78,82)       -179.1264         estimate D2E/DX2                !
 ! D226  D(73,78,80,83)        178.9687         estimate D2E/DX2                !
 ! D227  D(73,78,80,84)        -60.7305         estimate D2E/DX2                !
 ! D228  D(73,78,80,85)         59.2183         estimate D2E/DX2                !
 ! D229  D(81,78,80,83)         57.6409         estimate D2E/DX2                !
 ! D230  D(81,78,80,84)        177.9417         estimate D2E/DX2                !
 ! D231  D(81,78,80,85)        -62.1095         estimate D2E/DX2                !
 ! D232  D(82,78,80,83)        -58.1586         estimate D2E/DX2                !
 ! D233  D(82,78,80,84)         62.1422         estimate D2E/DX2                !
 ! D234  D(82,78,80,85)       -177.9091         estimate D2E/DX2                !
 --------------------------------------------------------------------------------
 Trust Radius=3.00D-01 FncErr=1.00D-07 GrdErr=1.00D-06 EigMax=2.50D+02 EigMin=1.00D-04
 Number of steps in this run=    494 maximum allowed number of steps=    516.
 GradGradGradGradGradGradGradGradGradGradGradGradGradGradGradGradGradGrad

 Stoichiometry    C36H50
 Framework group  C1[X(C36H50)]
 Deg. of freedom   252
 Full point group                 C1      NOp   1
 Largest Abelian subgroup         C1      NOp   1
 Largest concise Abelian subgroup C1      NOp   1
                         Standard orientation:                         
 ---------------------------------------------------------------------
 Center     Atomic      Atomic             Coordinates (Angstroms)
 Number     Number       Type             X           Y           Z
 ---------------------------------------------------------------------
      1          6           0        2.986808    2.112380   -2.177468
      2          6           0        2.566192    0.642201   -2.333789
      3          1           0        2.377720    2.752380   -2.825476
      4          1           0        4.037554    2.243565   -2.460046
      5          6           0        3.451385   -0.334576   -1.564798
      6          1           0        2.695067    0.394316   -3.397581
      7          6           0        4.079448   -0.012878   -0.353246
      8          6           0        4.861562   -0.946640    0.328157
      9          1           0        3.967674    0.982264    0.067493
     10          6           0        5.051869   -2.242197   -0.170605
     11          1           0        5.333084   -0.652730    1.263114
     12          6           0        4.427079   -2.562948   -1.382459
     13          6           0        3.646759   -1.629980   -2.063604
     14          1           0        4.560074   -3.557481   -1.803935
     15          1           0        3.184123   -1.911688   -3.008043
     16          6           0        5.899666   -3.269483    0.567626
     17          6           0        7.357741   -2.794748    0.719906
     18          1           0        7.781683   -2.524070   -0.253109
     19          1           0        7.989440   -3.576281    1.155477
     20          1           0        7.423750   -1.912529    1.368199
     21          6           0        5.255658   -3.650928    1.922919
     22          1           0        5.913141   -4.179558   -0.049938
     23          6           0        5.926683   -4.829288    2.638061
     24          1           0        5.256845   -2.772112    2.582840
     25          1           0        4.200174   -3.893807    1.744320
     26          1           0        5.376578   -5.094940    3.548030
     27          1           0        6.956611   -4.601162    2.933285
     28          1           0        5.953520   -5.718848    1.996010
     29          1           0        2.861862    2.482462   -1.156433
     30          6           0        1.054218    0.391968   -2.052841
     31          6           0        0.561957    0.584349   -0.599085
     32          1           0        0.473293    1.015524   -2.744073
     33          1           0        0.843980   -0.647263   -2.338919
     34          6           0        0.344932    2.030150   -0.162822
     35          1           0        1.341893    0.174731    0.055974
     36          6           0       -0.281080    2.995496   -0.960181
     37          6           0       -0.503430    4.295642   -0.496954
     38          1           0       -0.599677    2.745493   -1.968396
     39          6           0       -0.117162    4.692910    0.788660
     40          1           0       -0.979692    5.003148   -1.167153
     41          6           0        0.519959    3.725930    1.583691
     42          6           0        0.742708    2.431713    1.122137
     43          1           0        0.862687    3.993093    2.580974
     44          1           0        1.243972    1.715223    1.770365
     45          6           0       -0.312665    6.106270    1.344767
     46          6           0       -1.144618    6.088813    2.645107
     47          1           0       -0.668611    5.477372    3.417942
     48          1           0       -2.145619    5.679486    2.473262
     49          1           0       -1.255310    7.104039    3.045633
     50          6           0       -0.861885    7.146884    0.340067
     51          1           0        0.692102    6.461031    1.621433
     52          6           0       -2.369329    7.090522    0.047613
     53          1           0       -0.631086    8.142543    0.741940
     54          1           0       -0.298393    7.069421   -0.598611
     55          1           0       -2.633259    7.815573   -0.730918
     56          1           0       -2.959230    7.337953    0.936585
     57          1           0       -2.693849    6.102247   -0.294320
     58          6           0       -0.695024   -0.285341   -0.304347
     59          6           0       -1.949540    0.016603   -1.149302
     60          1           0       -0.953859   -0.175030    0.756723
     61          1           0       -0.419841   -1.339409   -0.446569
     62          6           0       -3.114498   -0.879174   -0.784213
     63          1           0       -2.236403    1.065180   -1.008468
     64          6           0       -4.013182   -0.520922    0.227367
     65          6           0       -5.066133   -1.363026    0.587296
     66          1           0       -3.889826    0.431621    0.739081
     67          6           0       -5.265180   -2.594191   -0.049189
     68          1           0       -5.750601   -1.054727    1.375118
     69          6           0       -4.364651   -2.951303   -1.063982
     70          6           0       -3.312018   -2.111205   -1.422729
     71          1           0       -4.487365   -3.896688   -1.587726
     72          1           0       -2.632873   -2.414933   -2.217322
     73          6           0       -6.429430   -3.497319    0.338054
     74          6           0       -7.421841   -3.667585   -0.828528
     75          1           0       -8.290408   -4.260181   -0.516705
     76          1           0       -7.781003   -2.696681   -1.186662
     77          1           0       -6.954667   -4.182340   -1.676630
     78          6           0       -5.967850   -4.873226    0.870934
     79          1           0       -6.967386   -2.997510    1.156831
     80          6           0       -5.115113   -4.800652    2.141055
     81          1           0       -6.861679   -5.481938    1.066149
     82          1           0       -5.410596   -5.397868    0.082271
     83          1           0       -4.832394   -5.802851    2.482973
     84          1           0       -4.195595   -4.230244    1.972097
     85          1           0       -5.662930   -4.313295    2.957410
     86          1           0       -1.714644   -0.107806   -2.214148
 ---------------------------------------------------------------------
 Rotational constants (GHZ):           0.0739935           0.0585701           0.0371036
 Standard basis: 6-311+G(d,p) (5D, 7F)
 There are  1128 symmetry adapted cartesian basis functions of A   symmetry.
 There are  1092 symmetry adapted basis functions of A   symmetry.
  1092 basis functions,  1696 primitive gaussians,  1128 cartesian basis functions
   133 alpha electrons      133 beta electrons
       nuclear repulsion energy      3628.6628970314 Hartrees.
 NAtoms=   86 NActive=   86 NUniq=   86 SFac= 1.00D+00 NAtFMM=   60 NAOKFM=T Big=T
 Integral buffers will be    131072 words long.
 Raffenetti 2 integral format.
 Two-electron integral symmetry is turned on.
 One-electron integrals computed using PRISM.
 NBasis=  1092 RedAO= T EigKep=  1.04D-06  NBF=  1092
 NBsUse=  1084 1.00D-06 EigRej=  9.77D-07 NBFU=  1084
 Initial guess from the checkpoint file:  "dvb_syn.chk"
 B after Tr=    -0.000000    0.000000   -0.000000
         Rot=    1.000000    0.000000   -0.000000    0.000000 Ang=   0.00 deg.
 Requested convergence on RMS density matrix=1.00D-08 within 128 cycles.
 Requested convergence on MAX density matrix=1.00D-06.
 Requested convergence on             energy=1.00D-06.
 No special actions if energy rises.
 SCF Done:  E(RB3LYP) =  -1402.35001694     A.U. after   13 cycles
            NFock= 13  Conv=0.39D-08     -V/T= 2.0052

 **********************************************************************

            Population analysis using the SCF density.

 **********************************************************************

 Orbital symmetries:
       Occupied  (A) (A) (A) (A) (A) (A) (A) (A) (A) (A) (A) (A)
                 (A) (A) (A) (A) (A) (A) (A) (A) (A) (A) (A) (A)
                 (A) (A) (A) (A) (A) (A) (A) (A) (A) (A) (A) (A)
                 (A) (A) (A) (A) (A) (A) (A) (A) (A) (A) (A) (A)
                 (A) (A) (A) (A) (A) (A) (A) (A) (A) (A) (A) (A)
                 (A) (A) (A) (A) (A) (A) (A) (A) (A) (A) (A) (A)
                 (A) (A) (A) (A) (A) (A) (A) (A) (A) (A) (A) (A)
                 (A) (A) (A) (A) (A) (A) (A) (A) (A) (A) (A) (A)
                 (A) (A) (A) (A) (A) (A) (A) (A) (A) (A) (A) (A)
                 (A) (A) (A) (A) (A) (A) (A) (A) (A) (A) (A) (A)
                 (A) (A) (A) (A) (A) (A) (A) (A) (A) (A) (A) (A)
                 (A)
       Virtual   (A) (A) (A) (A) (A) (A) (A) (A) (A) (A) (A) (A)
                 (A) (A) (A) (A) (A) (A) (A) (A) (A) (A) (A) (A)
                 (A) (A) (A) (A) (A) (A) (A) (A) (A) (A) (A) (A)
                 (A) (A) (A) (A) (A) (A) (A) (A) (A) (A) (A) (A)
                 (A) (A) (A) (A) (A) (A) (A) (A) (A) (A) (A) (A)
                 (A) (A) (A) (A) (A) (A) (A) (A) (A) (A) (A) (A)
                 (A) (A) (A) (A) (A) (A) (A) (A) (A) (A) (A) (A)
                 (A) (A) (A) (A) (A) (A) (A) (A) (A) (A) (A) (A)
                 (A) (A) (A) (A) (A) (A) (A) (A) (A) (A) (A) (A)
                 (A) (A) (A) (A) (A) (A) (A) (A) (A) (A) (A) (A)
                 (A) (A) (A) (A) (A) (A) (A) (A) (A) (A) (A) (A)
                 (A) (A) (A) (A) (A) (A) (A) (A) (A) (A) (A) (A)
                 (A) (A) (A) (A) (A) (A) (A) (A) (A) (A) (A) (A)
                 (A) (A) (A) (A) (A) (A) (A) (A) (A) (A) (A) (A)
                 (A) (A) (A) (A) (A) (A) (A) (A) (A) (A) (A) (A)
                 (A) (A) (A) (A) (A) (A) (A) (A) (A) (A) (A) (A)
                 (A) (A) (A) (A) (A) (A) (A) (A) (A) (A) (A) (A)
                 (A) (A) (A) (A) (A) (A) (A) (A) (A) (A) (A) (A)
                 (A) (A) (A) (A) (A) (A) (A) (A) (A) (A) (A) (A)
                 (A) (A) (A) (A) (A) (A) (A) (A) (A) (A) (A) (A)
                 (A) (A) (A) (A) (A) (A) (A) (A) (A) (A) (A) (A)
                 (A) (A) (A) (A) (A) (A) (A) (A) (A) (A) (A) (A)
                 (A) (A) (A) (A) (A) (A) (A) (A) (A) (A) (A) (A)
                 (A) (A) (A) (A) (A) (A) (A) (A) (A) (A) (A) (A)
                 (A) (A) (A) (A) (A) (A) (A) (A) (A) (A) (A) (A)
                 (A) (A) (A) (A) (A) (A) (A) (A) (A) (A) (A) (A)
                 (A) (A) (A) (A) (A) (A) (A) (A) (A) (A) (A) (A)
                 (A) (A) (A) (A) (A) (A) (A) (A) (A) (A) (A) (A)
                 (A) (A) (A) (A) (A) (A) (A) (A) (A) (A) (A) (A)
                 (A) (A) (A) (A) (A) (A) (A) (A) (A) (A) (A) (A)
                 (A) (A) (A) (A) (A) (A) (A) (A) (A) (A) (A) (A)
                 (A) (A) (A) (A) (A) (A) (A) (A) (A) (A) (A) (A)
                 (A) (A) (A) (A) (A) (A) (A) (A) (A) (A) (A) (A)
                 (A) (A) (A) (A) (A) (A) (A) (A) (A) (A) (A) (A)
                 (A) (A) (A) (A) (A) (A) (A) (A) (A) (A) (A) (A)
                 (A) (A) (A) (A) (A) (A) (A) (A) (A) (A) (A) (A)
                 (A) (A) (A) (A) (A) (A) (A) (A) (A) (A) (A) (A)
                 (A) (A) (A) (A) (A) (A) (A) (A) (A) (A) (A) (A)
                 (A) (A) (A) (A) (A) (A) (A) (A) (A) (A) (A) (A)
                 (A) (A) (A) (A) (A) (A) (A) (A) (A) (A) (A) (A)
                 (A) (A) (A) (A) (A) (A) (A) (A) (A) (A) (A) (A)
                 (A) (A) (A) (A) (A) (A) (A) (A) (A) (A) (A) (A)
                 (A) (A) (A) (A) (A) (A) (A) (A) (A) (A) (A) (A)
                 (A) (A) (A) (A) (A) (A) (A) (A) (A) (A) (A) (A)
                 (A) (A) (A) (A) (A) (A) (A) (A) (A) (A) (A) (A)
                 (A) (A) (A) (A) (A) (A) (A) (A) (A) (A) (A) (A)
                 (A) (A) (A) (A) (A) (A) (A) (A) (A) (A) (A) (A)
                 (A) (A) (A) (A) (A) (A) (A) (A) (A) (A) (A) (A)
                 (A) (A) (A) (A) (A) (A) (A) (A) (A) (A) (A) (A)
                 (A) (A) (A) (A) (A) (A) (A) (A) (A) (A) (A) (A)
                 (A) (A) (A) (A) (A) (A) (A) (A) (A) (A) (A) (A)
                 (A) (A) (A) (A) (A) (A) (A) (A) (A) (A) (A) (A)
                 (A) (A) (A) (A) (A) (A) (A) (A) (A) (A) (A) (A)
                 (A) (A) (A) (A) (A) (A) (A) (A) (A) (A) (A) (A)
                 (A) (A) (A) (A) (A) (A) (A) (A) (A) (A) (A) (A)
                 (A) (A) (A) (A) (A) (A) (A) (A) (A) (A) (A) (A)
                 (A) (A) (A) (A) (A) (A) (A) (A) (A) (A) (A) (A)
                 (A) (A) (A) (A) (A) (A) (A) (A) (A) (A) (A) (A)
                 (A) (A) (A) (A) (A) (A) (A) (A) (A) (A) (A) (A)
                 (A) (A) (A) (A) (A) (A) (A) (A) (A) (A) (A) (A)
                 (A) (A) (A) (A) (A) (A) (A) (A) (A) (A) (A) (A)
                 (A) (A) (A) (A) (A) (A) (A) (A) (A) (A) (A) (A)
                 (A) (A) (A) (A) (A) (A) (A) (A) (A) (A) (A) (A)
                 (A) (A) (A) (A) (A) (A) (A) (A) (A) (A) (A) (A)
                 (A) (A) (A) (A) (A) (A) (A) (A) (A) (A) (A) (A)
                 (A) (A) (A) (A) (A) (A) (A) (A) (A) (A) (A) (A)
                 (A) (A) (A) (A) (A) (A) (A) (A) (A) (A) (A) (A)
                 (A) (A) (A) (A) (A) (A) (A) (A) (A) (A) (A) (A)
                 (A) (A) (A) (A) (A) (A) (A) (A) (A) (A) (A) (A)
                 (A) (A) (A) (A) (A) (A) (A) (A) (A) (A) (A) (A)
                 (A) (A) (A) (A) (A) (A) (A) (A) (A) (A) (A) (A)
                 (A) (A) (A) (A) (A) (A) (A) (A) (A) (A) (A) (A)
                 (A) (A) (A) (A) (A) (A) (A) (A) (A) (A) (A) (A)
                 (A) (A) (A) (A) (A) (A) (A) (A) (A) (A) (A) (A)
                 (A) (A) (A) (A) (A) (A) (A) (A) (A) (A) (A) (A)
                 (A) (A) (A) (A) (A) (A) (A) (A) (A) (A) (A) (A)
                 (A) (A) (A) (A) (A) (A) (A) (A) (A) (A) (A) (A)
                 (A) (A) (A) (A) (A) (A) (A) (A) (A) (A) (A) (A)
                 (A) (A) (A) (A) (A) (A) (A) (A) (A) (A) (A) (A)
                 (A) (A) (A)
 The electronic state is 1-A.
 Alpha  occ. eigenvalues --  -10.18229 -10.18039 -10.17973 -10.17941 -10.17794
 Alpha  occ. eigenvalues --  -10.17740 -10.17730 -10.17730 -10.17697 -10.17637
 Alpha  occ. eigenvalues --  -10.17487 -10.17135 -10.17119 -10.17099 -10.17093
 Alpha  occ. eigenvalues --  -10.17069 -10.17061 -10.17041 -10.17037 -10.16947
 Alpha  occ. eigenvalues --  -10.16924 -10.16901 -10.16889 -10.16857 -10.16790
 Alpha  occ. eigenvalues --  -10.16760 -10.16730 -10.16702 -10.16536 -10.16130
 Alpha  occ. eigenvalues --  -10.15997 -10.15961 -10.15954 -10.15843 -10.15481
 Alpha  occ. eigenvalues --  -10.15401  -0.86520  -0.86139  -0.85942  -0.82809
 Alpha  occ. eigenvalues --   -0.81493  -0.81063  -0.79718  -0.78115  -0.76008
 Alpha  occ. eigenvalues --   -0.74624  -0.74414  -0.74182  -0.73959  -0.73502
 Alpha  occ. eigenvalues --   -0.72507  -0.71273  -0.70990  -0.69441  -0.66261
 Alpha  occ. eigenvalues --   -0.64953  -0.64724  -0.63118  -0.61717  -0.61072
 Alpha  occ. eigenvalues --   -0.60916  -0.60791  -0.60493  -0.58771  -0.57351
 Alpha  occ. eigenvalues --   -0.56110  -0.55746  -0.55671  -0.54994  -0.50702
 Alpha  occ. eigenvalues --   -0.49911  -0.49232  -0.47798  -0.47238  -0.47042
 Alpha  occ. eigenvalues --   -0.46595  -0.45840  -0.45641  -0.45213  -0.44865
 Alpha  occ. eigenvalues --   -0.44559  -0.44224  -0.44154  -0.43857  -0.43167
 Alpha  occ. eigenvalues --   -0.42872  -0.42382  -0.42269  -0.41818  -0.41761
 Alpha  occ. eigenvalues --   -0.41531  -0.41364  -0.40954  -0.40739  -0.40244
 Alpha  occ. eigenvalues --   -0.39583  -0.39479  -0.39376  -0.38810  -0.38471
 Alpha  occ. eigenvalues --   -0.38404  -0.37648  -0.37291  -0.37039  -0.36462
 Alpha  occ. eigenvalues --   -0.36138  -0.36058  -0.35962  -0.35096  -0.35007
 Alpha  occ. eigenvalues --   -0.34836  -0.34666  -0.34363  -0.33997  -0.33648
 Alpha  occ. eigenvalues --   -0.33348  -0.33218  -0.32827  -0.32803  -0.32352
 Alpha  occ. eigenvalues --   -0.32215  -0.32206  -0.32000  -0.31680  -0.31426
 Alpha  occ. eigenvalues --   -0.31237  -0.30753  -0.25358  -0.25245  -0.25095
 Alpha  occ. eigenvalues --   -0.23980  -0.23689  -0.23073
 Alpha virt. eigenvalues --   -0.01695  -0.01544  -0.01218  -0.01125  -0.01094
 Alpha virt. eigenvalues --   -0.00631  -0.00418   0.00109   0.00369   0.00556
 Alpha virt. eigenvalues --    0.01130   0.01380   0.01567   0.01759   0.01995
 Alpha virt. eigenvalues --    0.02300   0.02407   0.02483   0.02570   0.02878
 Alpha virt. eigenvalues --    0.03472   0.03839   0.03967   0.04126   0.04352
 Alpha virt. eigenvalues --    0.04552   0.04725   0.05297   0.05345   0.05765
 Alpha virt. eigenvalues --    0.05813   0.06099   0.06229   0.06366   0.06584
 Alpha virt. eigenvalues --    0.06692   0.06817   0.07034   0.07517   0.07542
 Alpha virt. eigenvalues --    0.07685   0.07965   0.08101   0.08333   0.08456
 Alpha virt. eigenvalues --    0.08934   0.09093   0.09148   0.09343   0.09439
 Alpha virt. eigenvalues --    0.09575   0.09736   0.09837   0.09952   0.10137
 Alpha virt. eigenvalues --    0.10400   0.10663   0.10835   0.10925   0.11225
 Alpha virt. eigenvalues --    0.11553   0.11929   0.12002   0.12048   0.12362
 Alpha virt. eigenvalues --    0.12476   0.12671   0.12725   0.12828   0.13000
 Alpha virt. eigenvalues --    0.13454   0.13469   0.13527   0.13962   0.14062
 Alpha virt. eigenvalues --    0.14168   0.14496   0.14534   0.14886   0.14985
 Alpha virt. eigenvalues --    0.15176   0.15327   0.15511   0.15838   0.16039
 Alpha virt. eigenvalues --    0.16352   0.16442   0.16621   0.16747   0.16907
 Alpha virt. eigenvalues --    0.17043   0.17157   0.17478   0.17589   0.17639
 Alpha virt. eigenvalues --    0.18047   0.18060   0.18238   0.18311   0.18570
 Alpha virt. eigenvalues --    0.18747   0.18781   0.18939   0.19069   0.19130
 Alpha virt. eigenvalues --    0.19343   0.19474   0.19635   0.19684   0.19894
 Alpha virt. eigenvalues --    0.20050   0.20331   0.20368   0.20457   0.20577
 Alpha virt. eigenvalues --    0.20665   0.20787   0.20990   0.21202   0.21321
 Alpha virt. eigenvalues --    0.21421   0.21539   0.21786   0.21974   0.21978
 Alpha virt. eigenvalues --    0.22151   0.22329   0.22424   0.22639   0.22771
 Alpha virt. eigenvalues --    0.22920   0.23024   0.23198   0.23367   0.23513
 Alpha virt. eigenvalues --    0.23550   0.23688   0.23894   0.24058   0.24157
 Alpha virt. eigenvalues --    0.24244   0.24372   0.24635   0.24856   0.24909
 Alpha virt. eigenvalues --    0.25071   0.25158   0.25409   0.25485   0.25690
 Alpha virt. eigenvalues --    0.25905   0.26157   0.26280   0.26370   0.26434
 Alpha virt. eigenvalues --    0.26581   0.26586   0.26696   0.26893   0.27062
 Alpha virt. eigenvalues --    0.27184   0.27335   0.27434   0.27627   0.27827
 Alpha virt. eigenvalues --    0.28042   0.28211   0.28496   0.28661   0.28763
 Alpha virt. eigenvalues --    0.29025   0.29122   0.29404   0.29487   0.29654
 Alpha virt. eigenvalues --    0.29876   0.30025   0.30184   0.30591   0.30669
 Alpha virt. eigenvalues --    0.30960   0.31189   0.31278   0.31511   0.31767
 Alpha virt. eigenvalues --    0.32073   0.32318   0.32351   0.32451   0.32914
 Alpha virt. eigenvalues --    0.33126   0.33172   0.33327   0.33584   0.34031
 Alpha virt. eigenvalues --    0.34156   0.34295   0.34577   0.34753   0.35031
 Alpha virt. eigenvalues --    0.35092   0.35314   0.35734   0.35999   0.36419
 Alpha virt. eigenvalues --    0.36545   0.36772   0.36967   0.37653   0.38017
 Alpha virt. eigenvalues --    0.38166   0.38683   0.39080   0.39498   0.39840
 Alpha virt. eigenvalues --    0.40166   0.40478   0.40807   0.41173   0.41363
 Alpha virt. eigenvalues --    0.42013   0.42338   0.42648   0.42748   0.42974
 Alpha virt. eigenvalues --    0.43400   0.43752   0.44140   0.44673   0.44968
 Alpha virt. eigenvalues --    0.45594   0.45926   0.46201   0.46506   0.47094
 Alpha virt. eigenvalues --    0.47355   0.47735   0.47992   0.49137   0.49587
 Alpha virt. eigenvalues --    0.50066   0.50180   0.50854   0.51282   0.51733
 Alpha virt. eigenvalues --    0.52097   0.52562   0.52784   0.53195   0.53253
 Alpha virt. eigenvalues --    0.53395   0.53841   0.54103   0.54530   0.54793
 Alpha virt. eigenvalues --    0.54943   0.55457   0.55563   0.55888   0.56086
 Alpha virt. eigenvalues --    0.56103   0.56261   0.57094   0.57351   0.57494
 Alpha virt. eigenvalues --    0.58027   0.58211   0.58809   0.58970   0.59572
 Alpha virt. eigenvalues --    0.59610   0.59928   0.60092   0.60797   0.61106
 Alpha virt. eigenvalues --    0.61261   0.61948   0.62063   0.62365   0.62547
 Alpha virt. eigenvalues --    0.62623   0.63084   0.63469   0.63536   0.63769
 Alpha virt. eigenvalues --    0.63851   0.64385   0.64606   0.64961   0.65201
 Alpha virt. eigenvalues --    0.65325   0.65706   0.65758   0.66118   0.66281
 Alpha virt. eigenvalues --    0.66839   0.67017   0.67264   0.67407   0.67902
 Alpha virt. eigenvalues --    0.68048   0.68458   0.68659   0.68772   0.68835
 Alpha virt. eigenvalues --    0.68978   0.69213   0.69441   0.69607   0.69718
 Alpha virt. eigenvalues --    0.70070   0.70218   0.70521   0.70726   0.70767
 Alpha virt. eigenvalues --    0.71174   0.71329   0.71542   0.71626   0.71964
 Alpha virt. eigenvalues --    0.72121   0.72246   0.72330   0.72468   0.72621
 Alpha virt. eigenvalues --    0.72927   0.73251   0.73395   0.73537   0.73636
 Alpha virt. eigenvalues --    0.73976   0.74187   0.74501   0.74616   0.74904
 Alpha virt. eigenvalues --    0.75219   0.75407   0.75687   0.75824   0.76005
 Alpha virt. eigenvalues --    0.76118   0.76523   0.76616   0.76931   0.77104
 Alpha virt. eigenvalues --    0.77201   0.77384   0.77584   0.77872   0.78236
 Alpha virt. eigenvalues --    0.78724   0.78926   0.79253   0.79284   0.79597
 Alpha virt. eigenvalues --    0.79755   0.80012   0.80292   0.80405   0.80854
 Alpha virt. eigenvalues --    0.81084   0.81481   0.82000   0.82228   0.83284
 Alpha virt. eigenvalues --    0.83745   0.83890   0.84099   0.84488   0.85320
 Alpha virt. eigenvalues --    0.85665   0.85947   0.86564   0.87046   0.87546
 Alpha virt. eigenvalues --    0.87900   0.88413   0.89361   0.89700   0.90276
 Alpha virt. eigenvalues --    0.90727   0.91522   0.91838   0.92075   0.92589
 Alpha virt. eigenvalues --    0.93008   0.93261   0.93593   0.94412   0.94748
 Alpha virt. eigenvalues --    0.95435   0.96051   0.96342   0.96451   0.96976
 Alpha virt. eigenvalues --    0.97304   0.97732   0.97969   0.98205   0.98552
 Alpha virt. eigenvalues --    0.99673   1.00231   1.00873   1.01453   1.01566
 Alpha virt. eigenvalues --    1.02841   1.03394   1.04080   1.04296   1.05440
 Alpha virt. eigenvalues --    1.05678   1.06366   1.07032   1.07685   1.08158
 Alpha virt. eigenvalues --    1.08168   1.08561   1.09360   1.09537   1.09825
 Alpha virt. eigenvalues --    1.10311   1.10552   1.10983   1.11580   1.11879
 Alpha virt. eigenvalues --    1.12212   1.12750   1.13496   1.13806   1.14439
 Alpha virt. eigenvalues --    1.14846   1.15140   1.16414   1.16850   1.17208
 Alpha virt. eigenvalues --    1.17872   1.18051   1.18616   1.19560   1.20497
 Alpha virt. eigenvalues --    1.20863   1.21720   1.22445   1.22569   1.24017
 Alpha virt. eigenvalues --    1.24847   1.24960   1.25977   1.26972   1.28118
 Alpha virt. eigenvalues --    1.29000   1.30076   1.30664   1.31753   1.32896
 Alpha virt. eigenvalues --    1.33755   1.34104   1.34192   1.36060   1.36474
 Alpha virt. eigenvalues --    1.37999   1.38690   1.39662   1.40606   1.41660
 Alpha virt. eigenvalues --    1.42167   1.42740   1.44212   1.44968   1.45150
 Alpha virt. eigenvalues --    1.45513   1.46150   1.46891   1.47355   1.47563
 Alpha virt. eigenvalues --    1.48056   1.48205   1.48673   1.49173   1.49602
 Alpha virt. eigenvalues --    1.49810   1.50593   1.50794   1.51310   1.51570
 Alpha virt. eigenvalues --    1.51890   1.52444   1.52659   1.52999   1.53309
 Alpha virt. eigenvalues --    1.53517   1.53964   1.54217   1.54524   1.55047
 Alpha virt. eigenvalues --    1.55111   1.55316   1.56023   1.56106   1.56316
 Alpha virt. eigenvalues --    1.56633   1.57246   1.57366   1.57748   1.57795
 Alpha virt. eigenvalues --    1.58004   1.58203   1.58377   1.58554   1.58772
 Alpha virt. eigenvalues --    1.59119   1.59231   1.59870   1.60072   1.60615
 Alpha virt. eigenvalues --    1.60941   1.61160   1.61488   1.61696   1.62073
 Alpha virt. eigenvalues --    1.62280   1.62542   1.62888   1.63264   1.63699
 Alpha virt. eigenvalues --    1.63992   1.64025   1.64522   1.65014   1.65121
 Alpha virt. eigenvalues --    1.65360   1.65920   1.66431   1.66740   1.67112
 Alpha virt. eigenvalues --    1.67194   1.67830   1.68230   1.68586   1.68762
 Alpha virt. eigenvalues --    1.68923   1.69067   1.69571   1.69873   1.70236
 Alpha virt. eigenvalues --    1.70664   1.71204   1.71356   1.71838   1.72162
 Alpha virt. eigenvalues --    1.72719   1.72795   1.73725   1.73814   1.74184
 Alpha virt. eigenvalues --    1.74441   1.74823   1.75050   1.75540   1.76240
 Alpha virt. eigenvalues --    1.76378   1.77324   1.77433   1.77942   1.78432
 Alpha virt. eigenvalues --    1.78446   1.79009   1.79313   1.79368   1.79923
 Alpha virt. eigenvalues --    1.80056   1.80470   1.80977   1.81307   1.82238
 Alpha virt. eigenvalues --    1.82766   1.83342   1.83481   1.83932   1.84488
 Alpha virt. eigenvalues --    1.84710   1.85145   1.86015   1.86625   1.86990
 Alpha virt. eigenvalues --    1.87397   1.87550   1.87764   1.88739   1.88973
 Alpha virt. eigenvalues --    1.89640   1.90230   1.90742   1.90921   1.91271
 Alpha virt. eigenvalues --    1.92383   1.92600   1.92941   1.93179   1.94110
 Alpha virt. eigenvalues --    1.94191   1.95033   1.95362   1.96164   1.96719
 Alpha virt. eigenvalues --    1.97271   1.97450   1.98370   1.98709   1.99342
 Alpha virt. eigenvalues --    1.99955   2.00462   2.00961   2.01411   2.01829
 Alpha virt. eigenvalues --    2.02467   2.03143   2.03578   2.03742   2.04647
 Alpha virt. eigenvalues --    2.05146   2.05189   2.06022   2.06827   2.07382
 Alpha virt. eigenvalues --    2.07785   2.08088   2.08326   2.09156   2.09333
 Alpha virt. eigenvalues --    2.09830   2.09936   2.10278   2.10970   2.11041
 Alpha virt. eigenvalues --    2.12793   2.12908   2.13440   2.13677   2.14018
 Alpha virt. eigenvalues --    2.14157   2.15023   2.15777   2.16707   2.17595
 Alpha virt. eigenvalues --    2.17821   2.18572   2.19372   2.19930   2.20248
 Alpha virt. eigenvalues --    2.20739   2.21182   2.21865   2.22645   2.23306
 Alpha virt. eigenvalues --    2.23989   2.24627   2.25205   2.25660   2.26691
 Alpha virt. eigenvalues --    2.27364   2.27776   2.28747   2.29593   2.29925
 Alpha virt. eigenvalues --    2.30308   2.31428   2.31884   2.32549   2.33402
 Alpha virt. eigenvalues --    2.33891   2.34282   2.34531   2.35278   2.36195
 Alpha virt. eigenvalues --    2.37078   2.37763   2.37796   2.39024   2.39480
 Alpha virt. eigenvalues --    2.39905   2.40267   2.40519   2.41634   2.42363
 Alpha virt. eigenvalues --    2.42682   2.43217   2.43386   2.43791   2.44014
 Alpha virt. eigenvalues --    2.44754   2.45325   2.45796   2.45912   2.46081
 Alpha virt. eigenvalues --    2.47462   2.47756   2.48111   2.48657   2.49109
 Alpha virt. eigenvalues --    2.49311   2.49654   2.49969   2.50766   2.52115
 Alpha virt. eigenvalues --    2.52697   2.52985   2.53387   2.53919   2.54247
 Alpha virt. eigenvalues --    2.55115   2.56649   2.57455   2.57549   2.57703
 Alpha virt. eigenvalues --    2.57822   2.58117   2.58340   2.58849   2.59579
 Alpha virt. eigenvalues --    2.59784   2.60129   2.60345   2.61468   2.61633
 Alpha virt. eigenvalues --    2.61751   2.62321   2.62611   2.63400   2.63835
 Alpha virt. eigenvalues --    2.64236   2.64505   2.64887   2.65265   2.65709
 Alpha virt. eigenvalues --    2.66671   2.66760   2.67023   2.67203   2.67568
 Alpha virt. eigenvalues --    2.67902   2.68460   2.68817   2.69127   2.69305
 Alpha virt. eigenvalues --    2.69699   2.70147   2.70881   2.71732   2.72255
 Alpha virt. eigenvalues --    2.73064   2.73365   2.74443   2.74744   2.75108
 Alpha virt. eigenvalues --    2.75583   2.75829   2.76013   2.76753   2.77095
 Alpha virt. eigenvalues --    2.77425   2.78014   2.78499   2.78945   2.79211
 Alpha virt. eigenvalues --    2.79793   2.79924   2.80482   2.80940   2.81680
 Alpha virt. eigenvalues --    2.81725   2.82254   2.82669   2.82858   2.83508
 Alpha virt. eigenvalues --    2.84037   2.84674   2.84977   2.85149   2.85738
 Alpha virt. eigenvalues --    2.86491   2.87641   2.88062   2.88170   2.88564
 Alpha virt. eigenvalues --    2.89298   2.89647   2.90262   2.90976   2.91445
 Alpha virt. eigenvalues --    2.92166   2.92724   2.93495   2.94013   2.94288
 Alpha virt. eigenvalues --    2.95002   2.95237   2.95642   2.95834   2.96463
 Alpha virt. eigenvalues --    2.96803   2.96984   2.97413   2.97833   2.98513
 Alpha virt. eigenvalues --    2.98831   2.99557   2.99949   3.00501   3.01251
 Alpha virt. eigenvalues --    3.02060   3.02771   3.03065   3.03840   3.04387
 Alpha virt. eigenvalues --    3.05233   3.06832   3.07616   3.08059   3.09039
 Alpha virt. eigenvalues --    3.12226   3.13103   3.13585   3.14829   3.15667
 Alpha virt. eigenvalues --    3.17304   3.18161   3.19034   3.20034   3.21251
 Alpha virt. eigenvalues --    3.23738   3.24137   3.26191   3.26536   3.27962
 Alpha virt. eigenvalues --    3.29353   3.30204   3.31416   3.32841   3.38558
 Alpha virt. eigenvalues --    3.39251   3.40034   3.40190   3.43320   3.44500
 Alpha virt. eigenvalues --    3.45218   3.45428   3.46548   3.50410   3.50693
 Alpha virt. eigenvalues --    3.51054   3.52002   3.53374   3.54988   3.61756
 Alpha virt. eigenvalues --    3.61791   3.62217   3.66470   3.66773   3.67423
 Alpha virt. eigenvalues --    3.75506   3.76104   3.76916   3.78482   3.78559
 Alpha virt. eigenvalues --    3.78704   3.78836   3.80176   3.80932   3.81161
 Alpha virt. eigenvalues --    3.81402   3.81467   3.82155   3.82334   3.82738
 Alpha virt. eigenvalues --    3.83536   3.83833   3.84279   3.85461   3.85781
 Alpha virt. eigenvalues --    3.85979   3.86155   3.87602   3.98393   3.99908
 Alpha virt. eigenvalues --    4.00337   4.00509   4.03443   4.05639   4.06095
 Alpha virt. eigenvalues --    4.09519   4.13694   4.15693   4.16593   4.16724
 Alpha virt. eigenvalues --    4.17413   4.17806   4.18641   4.19634   4.19971
 Alpha virt. eigenvalues --    4.20546   4.27972   4.30119   4.31510   4.32792
 Alpha virt. eigenvalues --    4.33499   4.34818   4.36478   4.38565   4.44312
 Alpha virt. eigenvalues --    4.45447   4.48088   4.86283   4.86508   4.86862
 Alpha virt. eigenvalues --   23.62876  23.63820  23.65120  23.83078  23.83250
[...]
 Alpha virt. eigenvalues --    0.55039   0.55500   0.55614   0.55971   0.56190
 Alpha virt. eigenvalues --    0.56233   0.56373   0.57159   0.57471   0.57544
 Alpha virt. eigenvalues --    0.58111   0.58315   0.58887   0.59101   0.59683
 Alpha virt. eigenvalues --    0.59776   0.60034   0.60124   0.60803   0.61138
 Alpha virt. eigenvalues --    0.61364   0.62009   0.62194   0.62374   0.62564
 Alpha virt. eigenvalues --    0.62669   0.63152   0.63493   0.63607   0.63833
 Alpha virt. eigenvalues --    0.63962   0.64461   0.64644   0.65097   0.65273
 Alpha virt. eigenvalues --    0.65445   0.65767   0.65795   0.66232   0.66379
 Alpha virt. eigenvalues --    0.66936   0.67107   0.67331   0.67511   0.67991
 Alpha virt. eigenvalues --    0.68158   0.68528   0.68767   0.68847   0.68953
 Alpha virt. eigenvalues --    0.69054   0.69330   0.69480   0.69645   0.69768
 Alpha virt. eigenvalues --    0.70158   0.70322   0.70591   0.70818   0.70889
 Alpha virt. eigenvalues --    0.71283   0.71425   0.71617   0.71715   0.72074
 Alpha virt. eigenvalues --    0.72256   0.72329   0.72416   0.72545   0.72684
 Alpha virt. eigenvalues --    0.73094   0.73300   0.73487   0.73660   0.73705
 Alpha virt. eigenvalues --    0.74077   0.74250   0.74567   0.74612   0.74987
 Alpha virt. eigenvalues --    0.75383   0.75514   0.75775   0.75924   0.76091
 Alpha virt. eigenvalues --    0.76238   0.76691   0.76713   0.77052   0.77225
 Alpha virt. eigenvalues --    0.77312   0.77474   0.77767   0.77936   0.78368
 Alpha virt. eigenvalues --    0.78829   0.79017   0.79271   0.79365   0.79612
 Alpha virt. eigenvalues --    0.79940   0.80104   0.80336   0.80439   0.80854
 Alpha virt. eigenvalues --    0.81121   0.81600   0.82103   0.82351   0.83358
 Alpha virt. eigenvalues --    0.83789   0.83942   0.84257   0.84534   0.85204
 Alpha virt. eigenvalues --    0.85763   0.86147   0.86564   0.87064   0.87601
 Alpha virt. eigenvalues --    0.88034   0.88309   0.89440   0.89779   0.90326
 Alpha virt. eigenvalues --    0.90664   0.91548   0.91909   0.92133   0.92610
 Alpha virt. eigenvalues --    0.93058   0.93268   0.93675   0.94396   0.94776
 Alpha virt. eigenvalues --    0.95528   0.96032   0.96377   0.96452   0.97050
 Alpha virt. eigenvalues --    0.97184   0.97730   0.97991   0.98189   0.98627
 Alpha virt. eigenvalues --    0.99652   1.00389   1.00916   1.01451   1.01558
 Alpha virt. eigenvalues --    1.02877   1.03337   1.04134   1.04369   1.05533
 Alpha virt. eigenvalues --    1.05784   1.06415   1.07029   1.07704   1.08201
 Alpha virt. eigenvalues --    1.08253   1.08635   1.09503   1.09618   1.09939
 Alpha virt. eigenvalues --    1.10320   1.10737   1.11109   1.11505   1.11947
 Alpha virt. eigenvalues --    1.12196   1.12820   1.13601   1.13920   1.14447
 Alpha virt. eigenvalues --    1.14937   1.15138   1.16551   1.16870   1.17274
 Alpha virt. eigenvalues --    1.18025   1.18138   1.18757   1.19589   1.20605
 Alpha virt. eigenvalues --    1.20965   1.21744   1.22549   1.22615   1.24076
 Alpha virt. eigenvalues --    1.24977   1.25121   1.25973   1.27122   1.28145
 Alpha virt. eigenvalues --    1.29104   1.30094   1.30731   1.31891   1.33142
 Alpha virt. eigenvalues --    1.33747   1.34237   1.34382   1.36058   1.36699
 Alpha virt. eigenvalues --    1.38110   1.38739   1.39864   1.40903   1.41777
 Alpha virt. eigenvalues --    1.42327   1.42854   1.44344   1.45057   1.45304
 Alpha virt. eigenvalues --    1.45574   1.46233   1.47064   1.47446   1.47687
 Alpha virt. eigenvalues --    1.48144   1.48293   1.48699   1.49297   1.49695
 Alpha virt. eigenvalues --    1.49905   1.50721   1.50895   1.51451   1.51673
 Alpha virt. eigenvalues --    1.51989   1.52601   1.52765   1.53110   1.53452
 Alpha virt. eigenvalues --    1.53649   1.54135   1.54302   1.54636   1.55236
 Alpha virt. eigenvalues --    1.55329   1.55557   1.56184   1.56206   1.56496
 Alpha virt. eigenvalues --    1.56768   1.57393   1.57495   1.57812   1.57923
 Alpha virt. eigenvalues --    1.58059   1.58309   1.58562   1.58691   1.58928
 Alpha virt. eigenvalues --    1.59233   1.59417   1.60067   1.60242   1.60767
 Alpha virt. eigenvalues --    1.61074   1.61290   1.61613   1.61814   1.62165
 Alpha virt. eigenvalues --    1.62432   1.62624   1.63011   1.63411   1.63868
 Alpha virt. eigenvalues --    1.64139   1.64169   1.64610   1.65130   1.65300
 Alpha virt. eigenvalues --    1.65505   1.66042   1.66572   1.66861   1.67212
 Alpha virt. eigenvalues --    1.67375   1.67906   1.68385   1.68698   1.68933
 Alpha virt. eigenvalues --    1.69090   1.69201   1.69713   1.69967   1.70331
 Alpha virt. eigenvalues --    1.70828   1.71396   1.71485   1.71982   1.72296
 Alpha virt. eigenvalues --    1.72931   1.73023   1.73916   1.74048   1.74323
 Alpha virt. eigenvalues --    1.74628   1.74994   1.75323   1.75665   1.76398
 Alpha virt. eigenvalues --    1.76554   1.77461   1.77649   1.78130   1.78582
 Alpha virt. eigenvalues --    1.78724   1.79112   1.79464   1.79560   1.80115
 Alpha virt. eigenvalues --    1.80215   1.80596   1.81144   1.81533   1.82418
 Alpha virt. eigenvalues --    1.82960   1.83468   1.83603   1.84106   1.84691
 Alpha virt. eigenvalues --    1.84873   1.85225   1.86285   1.86758   1.87265
 Alpha virt. eigenvalues --    1.87541   1.87736   1.87894   1.88976   1.89149
 Alpha virt. eigenvalues --    1.89809   1.90336   1.90990   1.91153   1.91443
 Alpha virt. eigenvalues --    1.92606   1.92796   1.93093   1.93386   1.94316
 Alpha virt. eigenvalues --    1.94413   1.95191   1.95639   1.96419   1.96851
 Alpha virt. eigenvalues --    1.97430   1.97659   1.98511   1.98967   1.99547
 Alpha virt. eigenvalues --    2.00170   2.00590   2.01081   2.01582   2.02046
 Alpha virt. eigenvalues --    2.02669   2.03379   2.03794   2.03939   2.04862
 Alpha virt. eigenvalues --    2.05323   2.05405   2.06296   2.06942   2.07548
 Alpha virt. eigenvalues --    2.08034   2.08318   2.08497   2.09376   2.09539
 Alpha virt. eigenvalues --    2.10062   2.10131   2.10420   2.11212   2.11317
 Alpha virt. eigenvalues --    2.13111   2.13126   2.13621   2.13925   2.14279
 Alpha virt. eigenvalues --    2.14437   2.15276   2.16051   2.16899   2.17862
 Alpha virt. eigenvalues --    2.18081   2.18804   2.19590   2.20127   2.20490
 Alpha virt. eigenvalues --    2.20910   2.21368   2.22035   2.22921   2.23607
 Alpha virt. eigenvalues --    2.24233   2.24958   2.25489   2.25911   2.27062
 Alpha virt. eigenvalues --    2.27642   2.28103   2.29075   2.29859   2.30164
 Alpha virt. eigenvalues --    2.30591   2.31659   2.32190   2.32888   2.33764
 Alpha virt. eigenvalues --    2.34261   2.34661   2.34861   2.35565   2.36593
 Alpha virt. eigenvalues --    2.37446   2.38132   2.38191   2.39321   2.39842
 Alpha virt. eigenvalues --    2.40281   2.40628   2.40861   2.41962   2.42710
 Alpha virt. eigenvalues --    2.43075   2.43638   2.43751   2.44265   2.44442
 Alpha virt. eigenvalues --    2.45117   2.45657   2.46201   2.46264   2.46400
 Alpha virt. eigenvalues --    2.47819   2.48141   2.48454   2.49048   2.49532
 Alpha virt. eigenvalues --    2.49758   2.50009   2.50335   2.51158   2.52479
 Alpha virt. eigenvalues --    2.52953   2.53255   2.53698   2.54184   2.54611
 Alpha virt. eigenvalues --    2.55275   2.57046   2.57748   2.57859   2.58037
 Alpha virt. eigenvalues --    2.58100   2.58508   2.58676   2.59226   2.59851
 Alpha virt. eigenvalues --    2.60136   2.60453   2.60675   2.61712   2.61828
 Alpha virt. eigenvalues --    2.62068   2.62503   2.62952   2.63607   2.64019
 Alpha virt. eigenvalues --    2.64452   2.64727   2.64990   2.65585   2.65843
 Alpha virt. eigenvalues --    2.66977   2.67071   2.67328   2.67529   2.67930
 Alpha virt. eigenvalues --    2.68229   2.68754   2.69025   2.69461   2.69551
 Alpha virt. eigenvalues --    2.69947   2.70410   2.71152   2.72071   2.72449
 Alpha virt. eigenvalues --    2.73198   2.73600   2.74606   2.74892   2.75194
 Alpha virt. eigenvalues --    2.75762   2.76060   2.76238   2.76897   2.77292
 Alpha virt. eigenvalues --    2.77572   2.78039   2.78555   2.79147   2.79531
 Alpha virt. eigenvalues --    2.79866   2.80251   2.80770   2.81278   2.81662
 Alpha virt. eigenvalues --    2.81789   2.82399   2.82777   2.82796   2.83542
 Alpha virt. eigenvalues --    2.84127   2.84695   2.85117   2.85347   2.85876
 Alpha virt. eigenvalues --    2.86786   2.87527   2.88294   2.88316   2.88620
 Alpha virt. eigenvalues --    2.89393   2.89600   2.90274   2.91029   2.91514
 Alpha virt. eigenvalues --    2.92279   2.92783   2.93664   2.94171   2.94486
 Alpha virt. eigenvalues --    2.95089   2.95417   2.95704   2.95945   2.96866
 Alpha virt. eigenvalues --    2.97021   2.97271   2.97562   2.98131   2.98643
 Alpha virt. eigenvalues --    2.99094   2.99728   3.00075   3.00674   3.01508
 Alpha virt. eigenvalues --    3.02203   3.02809   3.03185   3.04058   3.04456
 Alpha virt. eigenvalues --    3.05524   3.06896   3.07634   3.08084   3.09030
 Alpha virt. eigenvalues --    3.12220   3.13267   3.13757   3.14973   3.15782
 Alpha virt. eigenvalues --    3.17477   3.18255   3.19265   3.20380   3.21388
 Alpha virt. eigenvalues --    3.24157   3.24524   3.26612   3.26781   3.28300
 Alpha virt. eigenvalues --    3.29584   3.30441   3.31686   3.33038   3.38914
 Alpha virt. eigenvalues --    3.39676   3.40419   3.40584   3.43533   3.44775
 Alpha virt. eigenvalues --    3.45623   3.45845   3.46793   3.50912   3.51067
 Alpha virt. eigenvalues --    3.51435   3.52401   3.53733   3.55436   3.62607
 Alpha virt. eigenvalues --    3.62647   3.63053   3.66988   3.67338   3.67882
 Alpha virt. eigenvalues --    3.76000   3.76566   3.77448   3.79077   3.79141
 Alpha virt. eigenvalues --    3.79237   3.79393   3.80726   3.81532   3.81768
 Alpha virt. eigenvalues --    3.81973   3.82017   3.82725   3.82886   3.83202
 Alpha virt. eigenvalues --    3.84139   3.84441   3.84861   3.86037   3.86389
 Alpha virt. eigenvalues --    3.86646   3.86720   3.88107   3.98694   4.00331
 Alpha virt. eigenvalues --    4.00773   4.00955   4.03857   4.06151   4.06627
 Alpha virt. eigenvalues --    4.10025   4.14251   4.16181   4.16855   4.17012
 Alpha virt. eigenvalues --    4.17749   4.18246   4.19106   4.20132   4.20580
 Alpha virt. eigenvalues --    4.21057   4.28466   4.30530   4.32015   4.33219
 Alpha virt. eigenvalues --    4.33946   4.35349   4.36903   4.39136   4.44634
 Alpha virt. eigenvalues --    4.45906   4.48573   4.86679   4.86896   4.87307
 Alpha virt. eigenvalues --   23.63078  23.64114  23.65369  23.83452  23.83676
 Alpha virt. eigenvalues --   23.84451  23.84902  23.89230  23.90678  23.90768
 Alpha virt. eigenvalues --   23.91622  23.93562  23.95933  23.96574  23.97018
 Alpha virt. eigenvalues --   23.97172  23.97723  23.97940  23.98294  23.98385
 Alpha virt. eigenvalues --   23.98598  23.99288  23.99830  24.00157  24.00772
 Alpha virt. eigenvalues --   24.01047  24.03267  24.08529  24.08702  24.09404
 Alpha virt. eigenvalues --   24.11559  24.11626  24.12081  24.19642  24.19879
 Alpha virt. eigenvalues --   24.19971
          Condensed to atoms (all electrons):
 Mulliken charges:
               1
     1  C   -0.757444
     2  C   -0.350778
     3  H    0.144583
     4  H    0.145352
     5  C    1.127297
     6  H    0.136522
     7  C   -0.620529
     8  C   -0.361469
     9  H    0.111048
    10  C    0.459224
    11  H    0.107685
    12  C   -0.349179
    13  C   -0.420011
    14  H    0.109176
    15  H    0.107155
    16  C    0.255599
    17  C   -0.635443
    18  H    0.144300
    19  H    0.133764
    20  H    0.143478
    21  C   -0.288433
    22  H    0.105694
    23  C   -0.555993
    24  H    0.136211
    25  H    0.145724
    26  H    0.141975
    27  H    0.128911
    28  H    0.134117
    29  H    0.157645
    30  C   -0.254884
    31  C    0.883256
    32  H    0.143352
    33  H    0.141215
    34  C    0.828294
    35  H    0.146526
    36  C   -0.910267
    37  C   -0.777200
    38  H    0.112257
    39  C    0.905902
    40  H    0.119753
    41  C   -0.394570
    42  C   -0.362784
    43  H    0.107143
    44  H    0.114278
    45  C   -0.047479
    46  C   -0.688245
    47  H    0.133547
    48  H    0.150903
    49  H    0.141020
    50  C   -0.169338
    51  H    0.155996
    52  C   -0.518590
    53  H    0.140043
    54  H    0.142196
    55  H    0.140463
    56  H    0.141965
    57  H    0.133605
    58  C   -0.813339
    59  C   -0.197547
    60  H    0.145600
    61  H    0.151416
    62  C    0.664679
    63  H    0.153115
    64  C   -0.295726
    65  C   -0.543333
    66  H    0.114428
    67  C    1.145832
    68  H    0.110529
    69  C   -0.814764
    70  C   -0.320235
    71  H    0.113511
    72  H    0.105967
    73  C   -0.130312
    74  C   -0.620950
    75  H    0.130195
    76  H    0.144027
    77  H    0.141272
    78  C   -0.096754
    79  H    0.109869
    80  C   -0.589653
    81  H    0.123734
    82  H    0.128169
    83  H    0.137652
    84  H    0.145347
    85  H    0.130871
    86  H    0.131865
 Sum of Mulliken charges =  -0.00000
 Mulliken charges with hydrogens summed into heavy atoms:
               1
     1  C   -0.309863
     2  C   -0.214256
     5  C    1.127297
     7  C   -0.509481
     8  C   -0.253783
    10  C    0.459224
    12  C   -0.240003
    13  C   -0.312855
    16  C    0.361293
    17  C   -0.213902
    21  C   -0.006499
    23  C   -0.150991
    30  C    0.029684
    31  C    1.029782
    34  C    0.828294
    36  C   -0.798009
    37  C   -0.657448
    39  C    0.905902
    41  C   -0.287427
    42  C   -0.248506
    45  C    0.108517
    46  C   -0.262775
    50  C    0.112901
    52  C   -0.102558
    58  C   -0.516323
    59  C    0.087434
    62  C    0.664679
    64  C   -0.181298
    65  C   -0.432805
    67  C    1.145832
    69  C   -0.701254
    70  C   -0.214268
    73  C   -0.020442
    74  C   -0.205456
    78  C    0.155149
    80  C   -0.175783
 Electronic spatial extent (au):  <R**2>=          29962.5172
 Charge=             -0.0000 electrons
 Dipole moment (field-independent basis, Debye):
    X=              0.2252    Y=              0.2306    Z=              0.2478  Tot=              0.4066
 Quadrupole moment (field-independent basis, Debye-Ang):
   XX=           -229.3000   YY=           -214.9694   ZZ=           -221.5461
   XY=             -1.7039   XZ=              1.5815   YZ=              3.7618
 Traceless Quadrupole moment (field-independent basis, Debye-Ang):
   XX=             -7.3615   YY=              6.9691   ZZ=              0.3924
   XY=             -1.7039   XZ=              1.5815   YZ=              3.7618
 Octapole moment (field-independent basis, Debye-Ang**2):
  XXX=            -29.3226  YYY=             34.6351  ZZZ=             -5.1465  XYY=             -6.7576
  XXY=            -39.0454  XXZ=             56.7362  XZZ=              8.4863  YZZ=              8.0924
  YYZ=             -0.4555  XYZ=              6.3317
 Hexadecapole moment (field-independent basis, Debye-Ang**3):
 XXXX=         -22279.6637 YYYY=         -16879.8478 ZZZZ=          -3020.8332 XXXY=             71.4440
 XXXZ=            -53.4953 YYYX=            -59.2162 YYYZ=            146.8927 ZZZX=              7.3813
 ZZZY=             22.3849 XXYY=          -6474.7945 XXZZ=          -4245.0613 YYZZ=          -3347.1209
 XXYZ=            -28.4309 YYXZ=             12.0273 ZZXY=             -1.4223
 N-N= 3.632272915632D+03 E-N=-1.051327135027D+04  KE= 1.395400137614D+03
 1\1\GINC-NID00146\FOpt\RB3LYP\6-311+G(d,p)\C36H50\NMARIONI\04-Feb-2021
 \0\\#n B3LYP/6-311+g** Opt geom=check guess=read\\dvb_syn\\0,1\C,-0.47
 38246763,0.7312415989,-2.5427194083\C,-0.5716881598,-0.4067061972,-1.5
 157596103\H,-0.8805922603,1.6550870421,-2.122934273\H,-1.0470921456,0.
 4868289278,-3.441336499\C,-0.1565867181,-1.7679171352,-2.0643808975\H,
 -1.634215987,-0.5001253046,-1.2578309117\C,0.8000201251,-1.9296023072,
 -3.0729585171\C,1.1669466324,-3.1953723727,-3.5279573591\H,1.265588228
 4,-1.0600306162,-3.522123827\C,0.594436992,-4.3554911888,-2.9959408745
 \H,1.9103220681,-3.271091331,-4.3149078164\C,-0.3654159986,-4.19425541
 55,-1.9917103195\C,-0.7329735152,-2.9296981053,-1.5382962633\H,-0.8391
 702368,-5.0720229622,-1.5622474267\H,-1.4902791595,-2.8446244003,-0.76
 40103645\C,0.9913962236,-5.7421374304,-3.4803343033\C,0.6875848912,-5.
 9282983035,-4.9787067728\H,-0.3569923545,-5.6902907873,-5.1945299355\H
 ,0.8685522403,-6.957857952,-5.2971329114\H,1.311919382,-5.2738107135,-
 5.5947344307\C,2.4661214647,-6.0535145957,-3.1316184184\H,0.3720140491
 ,-6.4600583541,-2.9278877876\C,2.8853096911,-7.5066596709,-3.378375674
 \H,3.1193191544,-5.3814150162,-3.7008375683\H,2.626300962,-5.809328952
 ,-2.0760919436\H,3.9120711043,-7.6754302913,-3.0420013802\H,2.84096700
 12,-7.7749857736,-4.4369404602\H,2.2404780909,-8.2020095774,-2.8308643
 562\H,0.5531147989,0.9435271597,-2.8435216839\C,0.1352977939,-0.091471
 0283,-0.1647836764\C,1.6775458104,0.0090656001,-0.1775150782\H,-0.3087
 179154,0.8217316711,0.2442876667\H,-0.1369187028,-0.8923198076,0.53143
 47883\C,2.2500362096,1.3207951851,-0.703274156\H,2.0408541096,-0.77628
 39224,-0.8489062122\C,1.7278349169,2.5767256025,-0.3864119353\C,2.3167
 704873,3.7534145116,-0.8542292233\H,0.8382951052,2.6573036333,0.228069
 0619\C,3.4617699105,3.7318757189,-1.6552110632\H,1.8558899949,4.695496
 4108,-0.5865559229\C,3.980584021,2.469486256,-1.9785947382\C,3.3921927
 368,1.2982497809,-1.5150607171\H,4.8543411852,2.3968400054,-2.61849537
 38\H,3.8232754574,0.3419284516,-1.7968927871\C,4.1359820438,4.98453056
 21,-2.219285344\C,5.6148082952,5.0727214834,-1.7882595799\H,6.18064200
 68,4.1998644466,-2.1196922297\H,5.7101708532,5.131933593,-0.7013005248
 \H,6.0893927491,5.959180468,-2.2208223928\C,3.3920544318,6.3146658402,
 -1.9588519401\H,4.134558189,4.8536953257,-3.3097097701\C,3.5338471881,
 6.9212064931,-0.5547080018\H,3.7693182892,7.0453618387,-2.683269268\H,
 2.3321706753,6.1828848784,-2.2003920017\H,2.9028098512,7.8095866992,-0
 .4607117795\H,4.5622014742,7.2320210315,-0.3546263255\H,3.2448362498,6
 .2245531992,0.2355885078\C,2.2831603686,-0.3505814053,1.2095698788\C,1
 .8835344539,0.5599221712,2.387001969\H,3.374921261,-0.3490406498,1.122
 1558939\H,1.9948042567,-1.3812180978,1.4468331041\C,2.5275260357,0.131
 6904278,3.6873713855\H,2.1726876858,1.5905589159,2.1633018476\C,3.7834
 966875,0.6142081963,4.0650400469\C,4.3917293263,0.1924506288,5.2466282
 895\H,4.2929059218,1.3324704284,3.4295017754\C,3.7707495626,-0.7258872
 177,6.0978462238\H,5.3670545373,0.5885018282,5.5131647657\C,2.51067319
 25,-1.2060240462,5.7201343707\C,1.9033293234,-0.7863763068,4.539657377
 \H,1.9894955844,-1.9154262784,6.3549342063\H,0.9232243715,-1.174934996
 8,4.2784855347\C,4.437768312,-1.167594945,7.3930926691\C,3.6296216432,
 -0.7205521323,8.6254984861\H,4.1592727121,-0.9750156902,9.548680333\H,
 3.4609949159,0.3592669849,8.6154892587\H,2.6512415691,-1.2093881047,8.
 6572160028\C,4.7117261655,-2.6872508336,7.4377707851\H,5.4110314114,-0
 .6628152497,7.437838591\C,5.6602010317,-3.1881073186,6.3455308238\H,5.
 1315055415,-2.9282556122,8.4215465486\H,3.7593393399,-3.2270360504,7.3
 752108167\H,5.832445615,-4.2640138106,6.4391644996\H,5.2567329868,-2.9
 987782821,5.3475933166\H,6.6332124016,-2.690135752,6.4099296104\H,0.79
 51384799,0.554369297,2.5056836002\\Version=ES64L-G16RevA.03\State=1-A\
 HF=-1402.3503301\RMSD=5.390e-09\RMSF=9.486e-07\Dipole=0.0717098,0.0315
 513,-0.1394492\Quadrupole=-0.5147975,3.6282958,-3.1134983,2.0093238,-3
 .7607496,-3.0839714\PG=C01 [X(C36H50)]\\@


 IF YOU PERCEIVE THAT THERE ARE FOUR POSSIBLE WAYS IN
 WHICH A PROCEDURE CAN GO WRONG AND CIRCUMVENT THESE, 
 THEN A FIFTH WAY WILL DEVELOP.

                              -- MURPHY'S TWELFTH LAW
 Job cpu time:       1 days  7 hours 37 minutes 42.2 seconds.
 Elapsed time:       0 days  1 hours 19 minutes 16.6 seconds.
 File lengths (MBytes):  RWF=    705 Int=      0 D2E=      0 Chk=     94 Scr=      1
 Normal termination of Gaussian 16 at Thu Feb  4 12:15:04 2021.
