 Entering Gaussian System, Link 0=g16
 Input=dvb_iso.com
 Output=dvb_iso.log
 Initial command:
 /opt/apps/gaussian/16rA.03/g16/l1.exe "/tmp/Gau-39330.inp" -scrdir="/tmp/"
 Entering Link 1 = /opt/apps/gaussian/16rA.03/g16/l1.exe PID=     39331.
  
 Copyright (c) 1988,1990,1992,1993,1995,1998,2003,2009,2016,
            Gaussian, Inc.  All Rights Reserved.
  
 This is part of the Gaussian(R) 16 program.  It is based on
 the Gaussian(R) 09 system (copyright 2009, Gaussian, Inc.),
 the Gaussian(R) 03 system (copyright 2003, Gaussian, Inc.),
 the Gaussian(R) 98 system (copyright 1998, Gaussian, Inc.),
 the Gaussian(R) 94 system (copyright 1995, Gaussian, Inc.),
 the Gaussian 92(TM) system (copyright 1992, Gaussian, Inc.),
 the Gaussian 90(TM) system (copyright 1990, Gaussian, Inc.),
 the Gaussian 88(TM) system (copyright 1988, Gaussian, Inc.),
 the Gaussian 86(TM) system (copyright 1986, Carnegie Mellon
 University), and the Gaussian 82(TM) system (copyright 1983,
 Carnegie Mellon University). Gaussian is a federally registered
 trademark of Gaussian, Inc.
  
 This software contains proprietary and confidential information,
 including trade secrets, belonging to Gaussian, Inc.
  
 This software is provided under written license and may be
 used, copied, transmitted, or stored only in accord with that
 written license.
  
 The following legend is applicable only to US Government
 contracts under FAR:
  
                    RESTRICTED RIGHTS LEGEND
  
 Use, reproduction and disclosure by the US Government is
 subject to restrictions as set forth in subparagraphs (a)
 and (c) of the Commercial Computer Software - Restricted
 Rights clause in FAR 52.227-19.
  
 Gaussian, Inc.
 340 Quinnipiac St., Bldg. 40, Wallingford CT 06492
  
  
 ---------------------------------------------------------------
 Warning -- This program may not be used in any manner that
 competes with the business of Gaussian, Inc. or will provide
 assistance to any competitor of Gaussian, Inc.  The licensee
 of this program is prohibited from giving any competitor of
 Gaussian, Inc. access to this program.  By using this program,
 the user acknowledges that Gaussian, Inc. is engaged in the
 business of creating and licensing software in the field of
 computational chemistry and represents and warrants to the
 licensee that it is not a competitor of Gaussian, Inc. and that
 it will not use this program in any manner prohibited above.
 ---------------------------------------------------------------
  

 Cite this work as:
 Gaussian 16, Revision A.03,
 M. J. Frisch, G. W. Trucks, H. B. Schlegel, G. E. Scuseria, 
 M. A. Robb, J. R. Cheeseman, G. Scalmani, V. Barone, 
 G. A. Petersson, H. Nakatsuji, X. Li, M. Caricato, A. V. Marenich, 
 J. Bloino, B. G. Janesko, R. Gomperts, B. Mennucci, H. P. Hratchian, 
 J. V. Ortiz, A. F. Izmaylov, J. L. Sonnenberg, D. Williams-Young, 
 F. Ding, F. Lipparini, F. Egidi, J. Goings, B. Peng, A. Petrone, 
 T. Henderson, D. Ranasinghe, V. G. Zakrzewski, J. Gao, N. Rega, 
 G. Zheng, W. Liang, M. Hada, M. Ehara, K. Toyota, R. Fukuda, 
 J. Hasegawa, M. Ishida, T. Nakajima, Y. Honda, O. Kitao, H. Nakai, 
 T. Vreven, K. Throssell, J. A. Montgomery, Jr., J. E. Peralta, 
 F. Ogliaro, M. J. Bearpark, J. J. Heyd, E. N. Brothers, K. N. Kudin, 
 V. N. Staroverov, T. A. Keith, R. Kobayashi, J. Normand, 
 K. Raghavachari, A. P. Rendell, J. C. Burant, S. S. Iyengar, 
 J. Tomasi, M. Cossi, J. M. Millam, M. Klene, C. Adamo, R. Cammi, 
 J. W. Ochterski, R. L. Martin, K. Morokuma, O. Farkas, 
 J. B. Foresman, and D. J. Fox, Gaussian, Inc., Wallingford CT, 2016.
 
 ******************************************
 Gaussian 16:  ES64L-G16RevA.03 25-Dec-2016
                 4-Feb-2021 
 ******************************************
 %NProcShared=24
 Will use up to   24 processors via shared memory.
 %mem=48GB
 %Chk=dvb_iso.chk
 -------------------------------------------
 #n B3LYP/6-31G(d) Opt geom=check guess=read
 -------------------------------------------
 1/18=20,19=15,26=3,29=2,38=1/1,3;
 2/9=110,12=2,40=1/2;
 3/5=1,6=6,7=1,11=2,14=-4,25=1,30=1,71=1,74=-5,116=-2/1,2,3;
 4/5=1/1;
 5/5=2,38=6/2;
 6/7=2,8=2,9=2,10=2,28=1/1;
 7//1,2,3,16;
 1/18=20,19=15,26=3/3(2);
 2/9=110/2;
 99//99;
 2/9=110/2;
 3/5=1,6=6,7=1,11=2,14=-2,25=1,30=1,71=1,74=-5/1,2,3;
 4/5=5,16=3,69=1/1;
 5/5=2,38=5/2;
 7//1,2,3,16;
 1/18=20,19=15,26=3/3(-5);
 2/9=110/2;
 6/7=2,8=2,9=2,10=2,19=2,28=1/1;
 99/9=1/99;
 -------
 dvb_iso
 -------
 Structure from the checkpoint file:  "dvb_iso.chk"
 Charge =  0 Multiplicity = 1
 Redundant internal coordinates found in file.  (old form).
 C,0,0.5758425611,-0.3389737504,-0.2609202102
 C,0,-0.5135171433,-0.8955107268,0.6776939368
 H,0,0.9722542212,0.6110049425,0.1182239673
 H,0,0.1771731324,-0.1663318647,-1.2663648713
 C,0,-1.1322876528,-2.1607998489,0.0992094671
 H,0,-1.3151446584,-0.1440852549,0.7285527521
 C,0,-0.4050661275,-3.3544943604,-0.0233671728
 C,0,-0.9704792854,-4.4877359316,-0.602082242
 H,0,0.6173271971,-3.4049014892,0.343001959
 C,0,-2.2877030296,-4.4796460581,-1.0876881693
 H,0,-0.3736982429,-5.3939885604,-0.6752463833
 C,0,-3.0128532939,-3.2905507227,-0.961722132
 C,0,-2.4464338676,-2.1544219866,-0.3799131412
 H,0,-4.0373311796,-3.2492376586,-1.3262802133
 H,0,-3.0374956094,-1.2436182994,-0.3040408695
 C,0,-2.907431779,-5.7104602755,-1.7363065328
 C,0,-2.1324573699,-6.1362942966,-2.998102723
 H,0,-2.0579915984,-5.3105309238,-3.7140417348
 H,0,-2.6324303923,-6.9762526727,-3.4952808542
 H,0,-1.1128067217,-6.45560791,-2.7517322121
 C,0,-3.0504769162,-6.8954690274,-0.7535975865
 H,0,-3.9227706243,-5.4307809638,-2.0535170038
 C,0,-3.9556408546,-6.6082206836,0.4478929254
 H,0,-2.0538962702,-7.1944095322,-0.3997345278
 H,0,-3.4460110492,-7.7556460552,-1.3116652844
 H,0,-3.5545920397,-5.7970419678,1.0645850884
 H,0,-4.055431853,-7.4960331654,1.0829630649
 H,0,-4.9629360463,-6.3173204507,0.1233606834
 H,0,1.4143896536,-1.039702495,-0.3521758614
 C,0,0.0423870913,-1.0489463461,2.1137307938
 C,0,-1.0066818047,-1.4978093199,3.1687858773
 H,0,0.900121597,-1.7313163194,2.1006848213
 H,0,0.4505092958,-0.0696181586,2.3954547638
 C,0,-0.9569573761,-2.9790404537,3.5362727433
 H,0,-1.9937630804,-1.348082109,2.7098358839
 C,0,0.2304211334,-3.67785425,3.7821295629
 C,0,0.2146385527,-5.022647547,4.1552573879
 H,0,1.1877263443,-3.1716228001,3.7046473749
 C,0,-0.9840565685,-5.7310647272,4.2941549408
 H,0,1.1580690288,-5.5299082842,4.3468993082
 C,0,-2.1749575758,-5.0345820957,4.0417017256
 C,0,-2.15794799,-3.6913001511,3.6717280987
 H,0,-3.1314447898,-5.5451566638,4.1283007931
 H,0,-3.1005862856,-3.1841391666,3.4748499531
 C,0,-0.9858220921,-7.2037797281,4.683998076
 C,0,-1.5007789939,-8.0883441668,3.5318151998
 H,0,-2.5504712297,-7.8694796678,3.3028858101
 H,0,-1.4298297281,-9.1509322505,3.7945136724
 H,0,-0.9209855541,-7.9223160469,2.6172920371
 C,0,-1.7790402578,-7.4793524582,5.9817732479
 H,0,0.0590112437,-7.4890836188,4.8756689608
 C,0,-1.2106485511,-6.7854824921,7.2230548071
 H,0,-1.7988018354,-8.5653951443,6.1484407076
 H,0,-2.8254783584,-7.1769924158,5.8368237496
 H,0,-0.1860055922,-7.1216539491,7.4268225679
 H,0,-1.8144935202,-7.0086136232,8.1103838229
 H,0,-1.1822943955,-5.6980154881,7.0961245917
 C,0,-1.0352224028,-0.5549914068,4.410807061
 C,0,0.2666379074,-0.2927896623,5.201257005
 H,0,-1.815052946,-0.9111746314,5.0956081559
 H,0,-1.3807048973,0.4228987513,4.0466758736
 C,0,0.7674150637,-1.3645768132,6.1529828129
 H,0,1.0736701434,-0.0349329819,4.5043968292
 C,0,2.1180807172,-1.7373895267,6.1536518581
 C,0,2.6166600679,-2.668408182,7.0637945328
 H,0,2.793974669,-1.287648519,5.428461734
 C,0,1.7820189747,-3.2675593804,8.0170913064
 H,0,3.672011148,-2.9292339684,7.0267999293
 C,0,0.4329731334,-2.8892302727,8.020142827
 C,0,-0.0649627394,-1.9556807409,7.1111331457
 H,0,-0.2407986312,-3.3315186055,8.7512167001
 H,0,-1.1178402537,-1.6873657344,7.1538218067
 C,0,2.3136995551,-4.2916753762,9.0114183621
 C,0,2.8754695508,-5.535490509,8.2965467306
 H,0,2.12684597,-5.9787813258,7.6311495268
 H,0,3.1818801299,-6.2965404167,9.0243158371
 H,0,3.7535357285,-5.2841665778,7.6895245863
 C,0,3.3641757508,-3.6942767994,9.9763852197
 H,0,1.4615537421,-4.6210698343,9.6235017547
 C,0,2.8340420894,-2.5612515763,10.8599462121
 H,0,4.2249581372,-3.3359008582,9.3945374244
 H,0,3.7446825528,-4.5051445908,10.6130663581
 H,0,2.479222851,-1.7181782526,10.2575981704
 H,0,3.6146833931,-2.1895536673,11.5335048923
 H,0,1.9954497176,-2.902795383,11.4797732654
 H,0,0.0929990094,0.6210182744,5.7891546838
 Recover connectivity data from disk.

 GradGradGradGradGradGradGradGradGradGradGradGradGradGradGradGradGradGrad
 Berny optimization.
 Initialization pass.
                           ----------------------------
                           !    Initial Parameters    !
                           ! (Angstroms and Degrees)  !
 --------------------------                            --------------------------
 ! Name  Definition              Value          Derivative Info.                !
 --------------------------------------------------------------------------------
 ! R1    R(1,2)                  1.5419         estimate D2E/DX2                !
 ! R2    R(1,3)                  1.097          estimate D2E/DX2                !
 ! R3    R(1,4)                  1.0953         estimate D2E/DX2                !
 ! R4    R(1,29)                 1.0966         estimate D2E/DX2                !
 ! R5    R(2,5)                  1.5227         estimate D2E/DX2                !
 ! R6    R(2,6)                  1.0999         estimate D2E/DX2                !
 ! R7    R(2,30)                 1.5475         estimate D2E/DX2                !
 ! R8    R(5,7)                  1.4031         estimate D2E/DX2                !
 ! R9    R(5,13)                 1.3988         estimate D2E/DX2                !
 ! R10   R(7,8)                  1.3924         estimate D2E/DX2                !
 ! R11   R(7,9)                  1.0872         estimate D2E/DX2                !
 ! R12   R(8,10)                 1.4039         estimate D2E/DX2                !
 ! R13   R(8,11)                 1.0876         estimate D2E/DX2                !
 ! R14   R(10,12)                1.3984         estimate D2E/DX2                !
 ! R15   R(10,16)                1.523          estimate D2E/DX2                !
 ! R16   R(12,13)                1.3965         estimate D2E/DX2                !
 ! R17   R(12,14)                1.0882         estimate D2E/DX2                !
 ! R18   R(13,15)                1.0884         estimate D2E/DX2                !
 ! R19   R(16,17)                1.5408         estimate D2E/DX2                !
 ! R20   R(16,21)                1.5461         estimate D2E/DX2                !
 ! R21   R(16,22)                1.0999         estimate D2E/DX2                !
 ! R22   R(17,18)                1.0954         estimate D2E/DX2                !
 ! R23   R(17,19)                1.0967         estimate D2E/DX2                !
 ! R24   R(17,20)                1.0965         estimate D2E/DX2                !
 ! R25   R(21,23)                1.5315         estimate D2E/DX2                !
 ! R26   R(21,24)                1.099          estimate D2E/DX2                !
 ! R27   R(21,25)                1.099          estimate D2E/DX2                !
 ! R28   R(23,26)                1.0951         estimate D2E/DX2                !
 ! R29   R(23,27)                1.0961         estimate D2E/DX2                !
 ! R30   R(23,28)                1.0975         estimate D2E/DX2                !
 ! R31   R(30,31)                1.5541         estimate D2E/DX2                !
 ! R32   R(30,32)                1.0961         estimate D2E/DX2                !
 ! R33   R(30,33)                1.0977         estimate D2E/DX2                !
 ! R34   R(31,34)                1.5269         estimate D2E/DX2                !
 ! R35   R(31,35)                1.0988         estimate D2E/DX2                !
 ! R36   R(31,58)                1.5596         estimate D2E/DX2                !
 ! R37   R(34,36)                1.3995         estimate D2E/DX2                !
 ! R38   R(34,42)                1.4029         estimate D2E/DX2                !
 ! R39   R(36,37)                1.3957         estimate D2E/DX2                !
 ! R40   R(36,38)                1.0857         estimate D2E/DX2                !
 ! R41   R(37,39)                1.3993         estimate D2E/DX2                !
 ! R42   R(37,40)                1.0882         estimate D2E/DX2                !
 ! R43   R(39,41)                1.4025         estimate D2E/DX2                !
 ! R44   R(39,45)                1.5234         estimate D2E/DX2                !
 ! R45   R(41,42)                1.3934         estimate D2E/DX2                !
 ! R46   R(41,43)                1.0877         estimate D2E/DX2                !
 ! R47   R(42,44)                1.0884         estimate D2E/DX2                !
 ! R48   R(45,46)                1.5412         estimate D2E/DX2                !
 ! R49   R(45,50)                1.5458         estimate D2E/DX2                !
 ! R50   R(45,51)                1.0999         estimate D2E/DX2                !
 ! R51   R(46,47)                1.0964         estimate D2E/DX2                !
 ! R52   R(46,48)                1.0969         estimate D2E/DX2                !
 ! R53   R(46,49)                1.0955         estimate D2E/DX2                !
 ! R54   R(50,52)                1.5314         estimate D2E/DX2                !
 ! R55   R(50,53)                1.0989         estimate D2E/DX2                !
 ! R56   R(50,54)                1.0988         estimate D2E/DX2                !
 ! R57   R(52,55)                1.0975         estimate D2E/DX2                !
 ! R58   R(52,56)                1.0963         estimate D2E/DX2                !
 ! R59   R(52,57)                1.0952         estimate D2E/DX2                !
 ! R60   R(58,59)                1.5454         estimate D2E/DX2                !
 ! R61   R(58,60)                1.0972         estimate D2E/DX2                !
 ! R62   R(58,61)                1.0992         estimate D2E/DX2                !
 ! R63   R(59,62)                1.5183         estimate D2E/DX2                !
 ! R64   R(59,63)                1.097          estimate D2E/DX2                !
 ! R65   R(59,86)                1.1004         estimate D2E/DX2                !
 ! R66   R(62,64)                1.4012         estimate D2E/DX2                !
 ! R67   R(62,70)                1.4001         estimate D2E/DX2                !
 ! R68   R(64,65)                1.3942         estimate D2E/DX2                !
 ! R69   R(64,66)                1.0886         estimate D2E/DX2                !
 ! R70   R(65,67)                1.4016         estimate D2E/DX2                !
 ! R71   R(65,68)                1.0877         estimate D2E/DX2                !
 ! R72   R(67,69)                1.4011         estimate D2E/DX2                !
 ! R73   R(67,73)                1.5232         estimate D2E/DX2                !
 ! R74   R(69,70)                1.3949         estimate D2E/DX2                !
 ! R75   R(69,71)                1.0881         estimate D2E/DX2                !
 ! R76   R(70,72)                1.0874         estimate D2E/DX2                !
 ! R77   R(73,74)                1.5407         estimate D2E/DX2                !
 ! R78   R(73,78)                1.5465         estimate D2E/DX2                !
 ! R79   R(73,79)                1.0997         estimate D2E/DX2                !
 ! R80   R(74,75)                1.0953         estimate D2E/DX2                !
 ! R81   R(74,76)                1.0967         estimate D2E/DX2                !
 ! R82   R(74,77)                1.0966         estimate D2E/DX2                !
 ! R83   R(78,80)                1.5315         estimate D2E/DX2                !
 ! R84   R(78,81)                1.0991         estimate D2E/DX2                !
 ! R85   R(78,82)                1.0989         estimate D2E/DX2                !
 ! R86   R(80,83)                1.0952         estimate D2E/DX2                !
 ! R87   R(80,84)                1.096          estimate D2E/DX2                !
 ! R88   R(80,85)                1.0973         estimate D2E/DX2                !
 ! A1    A(2,1,3)              110.9461         estimate D2E/DX2                !
 ! A2    A(2,1,4)              111.0106         estimate D2E/DX2                !
 ! A3    A(2,1,29)             111.1167         estimate D2E/DX2                !
 ! A4    A(3,1,4)              108.1984         estimate D2E/DX2                !
 ! A5    A(3,1,29)             107.8068         estimate D2E/DX2                !
 ! A6    A(4,1,29)             107.6177         estimate D2E/DX2                !
 ! A7    A(1,2,5)              110.8407         estimate D2E/DX2                !
 ! A8    A(1,2,6)              107.2457         estimate D2E/DX2                !
 ! A9    A(1,2,30)             110.2969         estimate D2E/DX2                !
 ! A10   A(5,2,6)              106.8034         estimate D2E/DX2                !
 ! A11   A(5,2,30)             114.5912         estimate D2E/DX2                !
 ! A12   A(6,2,30)             106.6565         estimate D2E/DX2                !
 ! A13   A(2,5,7)              121.9724         estimate D2E/DX2                !
 ! A14   A(2,5,13)             120.5396         estimate D2E/DX2                !
 ! A15   A(7,5,13)             117.444          estimate D2E/DX2                !
 ! A16   A(5,7,8)              121.2138         estimate D2E/DX2                !
 ! A17   A(5,7,9)              119.8271         estimate D2E/DX2                !
 ! A18   A(8,7,9)              118.9582         estimate D2E/DX2                !
 ! A19   A(7,8,10)             121.3365         estimate D2E/DX2                !
 ! A20   A(7,8,11)             118.9025         estimate D2E/DX2                !
 ! A21   A(10,8,11)            119.761          estimate D2E/DX2                !
 ! A22   A(8,10,12)            117.4042         estimate D2E/DX2                !
 ! A23   A(8,10,16)            121.6296         estimate D2E/DX2                !
 ! A24   A(12,10,16)           120.9649         estimate D2E/DX2                !
 ! A25   A(10,12,13)           121.264          estimate D2E/DX2                !
 ! A26   A(10,12,14)           119.3592         estimate D2E/DX2                !
 ! A27   A(13,12,14)           119.3766         estimate D2E/DX2                !
 ! A28   A(5,13,12)            121.3367         estimate D2E/DX2                !
 ! A29   A(5,13,15)            119.3487         estimate D2E/DX2                !
 ! A30   A(12,13,15)           119.3132         estimate D2E/DX2                !
 ! A31   A(10,16,17)           111.5578         estimate D2E/DX2                !
 ! A32   A(10,16,21)           112.7276         estimate D2E/DX2                !
 ! A33   A(10,16,22)           107.0348         estimate D2E/DX2                !
 ! A34   A(17,16,21)           110.807          estimate D2E/DX2                !
 ! A35   A(17,16,22)           107.3617         estimate D2E/DX2                !
 ! A36   A(21,16,22)           107.0253         estimate D2E/DX2                !
 ! A37   A(16,17,18)           111.1661         estimate D2E/DX2                !
 ! A38   A(16,17,19)           110.7098         estimate D2E/DX2                !
 ! A39   A(16,17,20)           111.358          estimate D2E/DX2                !
 ! A40   A(18,17,19)           108.1833         estimate D2E/DX2                !
 ! A41   A(18,17,20)           107.6469         estimate D2E/DX2                !
 ! A42   A(19,17,20)           107.6236         estimate D2E/DX2                !
 ! A43   A(16,21,23)           114.1783         estimate D2E/DX2                !
 ! A44   A(16,21,24)           109.2231         estimate D2E/DX2                !
 ! A45   A(16,21,25)           108.0855         estimate D2E/DX2                !
 ! A46   A(23,21,24)           109.5346         estimate D2E/DX2                !
 ! A47   A(23,21,25)           109.4187         estimate D2E/DX2                !
 ! A48   A(24,21,25)           106.0796         estimate D2E/DX2                !
 ! A49   A(21,23,26)           111.3642         estimate D2E/DX2                !
 ! A50   A(21,23,27)           110.8812         estimate D2E/DX2                !
 ! A51   A(21,23,28)           111.1111         estimate D2E/DX2                !
 ! A52   A(26,23,27)           107.8813         estimate D2E/DX2                !
 ! A53   A(26,23,28)           107.8367         estimate D2E/DX2                !
 ! A54   A(27,23,28)           107.6043         estimate D2E/DX2                !
 ! A55   A(2,30,31)            114.5909         estimate D2E/DX2                !
 ! A56   A(2,30,32)            109.3767         estimate D2E/DX2                !
 ! A57   A(2,30,33)            106.4546         estimate D2E/DX2                !
 ! A58   A(31,30,32)           110.8856         estimate D2E/DX2                !
 ! A59   A(31,30,33)           109.5369         estimate D2E/DX2                !
 ! A60   A(32,30,33)           105.5159         estimate D2E/DX2                !
 ! A61   A(30,31,34)           114.9348         estimate D2E/DX2                !
 ! A62   A(30,31,35)           106.4684         estimate D2E/DX2                !
 ! A63   A(30,31,58)           112.2347         estimate D2E/DX2                !
 ! A64   A(34,31,35)           105.1863         estimate D2E/DX2                !
 ! A65   A(34,31,58)           113.2886         estimate D2E/DX2                !
 ! A66   A(35,31,58)           103.5218         estimate D2E/DX2                !
 ! A67   A(31,34,36)           123.6613         estimate D2E/DX2                !
 ! A68   A(31,34,42)           119.201          estimate D2E/DX2                !
 ! A69   A(36,34,42)           117.1197         estimate D2E/DX2                !
 ! A70   A(34,36,37)           121.2308         estimate D2E/DX2                !
 ! A71   A(34,36,38)           120.1811         estimate D2E/DX2                !
 ! A72   A(37,36,38)           118.5762         estimate D2E/DX2                !
 ! A73   A(36,37,39)           121.6031         estimate D2E/DX2                !
 ! A74   A(36,37,40)           119.107          estimate D2E/DX2                !
 ! A75   A(39,37,40)           119.2893         estimate D2E/DX2                !
 ! A76   A(37,39,41)           117.2654         estimate D2E/DX2                !
 ! A77   A(37,39,45)           121.0513         estimate D2E/DX2                !
 ! A78   A(41,39,45)           121.6774         estimate D2E/DX2                !
 ! A79   A(39,41,42)           121.0749         estimate D2E/DX2                !
 ! A80   A(39,41,43)           119.9507         estimate D2E/DX2                !
 ! A81   A(42,41,43)           118.9735         estimate D2E/DX2                !
 ! A82   A(34,42,41)           121.7047         estimate D2E/DX2                !
 ! A83   A(34,42,44)           119.1708         estimate D2E/DX2                !
 ! A84   A(41,42,44)           119.1226         estimate D2E/DX2                !
 ! A85   A(39,45,46)           111.3416         estimate D2E/DX2                !
 ! A86   A(39,45,50)           112.8164         estimate D2E/DX2                !
 ! A87   A(39,45,51)           107.1121         estimate D2E/DX2                !
 ! A88   A(46,45,50)           110.7251         estimate D2E/DX2                !
 ! A89   A(46,45,51)           107.3858         estimate D2E/DX2                !
 ! A90   A(50,45,51)           107.1524         estimate D2E/DX2                !
 ! A91   A(45,46,47)           111.1873         estimate D2E/DX2                !
 ! A92   A(45,46,48)           110.8153         estimate D2E/DX2                !
 ! A93   A(45,46,49)           111.1175         estimate D2E/DX2                !
 ! A94   A(47,46,48)           107.7766         estimate D2E/DX2                !
 ! A95   A(47,46,49)           107.5861         estimate D2E/DX2                !
 ! A96   A(48,46,49)           108.2112         estimate D2E/DX2                !
 ! A97   A(45,50,52)           114.159          estimate D2E/DX2                !
 ! A98   A(45,50,53)           108.2248         estimate D2E/DX2                !
 ! A99   A(45,50,54)           109.2009         estimate D2E/DX2                !
 ! A100  A(52,50,53)           109.3608         estimate D2E/DX2                !
 ! A101  A(52,50,54)           109.6147         estimate D2E/DX2                !
 ! A102  A(53,50,54)           105.9509         estimate D2E/DX2                !
 ! A103  A(50,52,55)           110.9914         estimate D2E/DX2                !
 ! A104  A(50,52,56)           111.0635         estimate D2E/DX2                !
 ! A105  A(50,52,57)           111.4414         estimate D2E/DX2                !
 ! A106  A(55,52,56)           107.5563         estimate D2E/DX2                !
 ! A107  A(55,52,57)           107.5475         estimate D2E/DX2                !
 ! A108  A(56,52,57)           108.0694         estimate D2E/DX2                !
 ! A109  A(31,58,59)           119.6349         estimate D2E/DX2                !
 ! A110  A(31,58,60)           108.2878         estimate D2E/DX2                !
 ! A111  A(31,58,61)           106.2453         estimate D2E/DX2                !
 ! A112  A(59,58,60)           109.5456         estimate D2E/DX2                !
 ! A113  A(59,58,61)           106.4552         estimate D2E/DX2                !
 ! A114  A(60,58,61)           105.7928         estimate D2E/DX2                !
 ! A115  A(58,59,62)           118.5992         estimate D2E/DX2                !
 ! A116  A(58,59,63)           109.5538         estimate D2E/DX2                !
 ! A117  A(58,59,86)           106.3337         estimate D2E/DX2                !
 ! A118  A(62,59,63)           108.7521         estimate D2E/DX2                !
 ! A119  A(62,59,86)           107.6601         estimate D2E/DX2                !
 ! A120  A(63,59,86)           105.0866         estimate D2E/DX2                !
 ! A121  A(59,62,64)           120.4014         estimate D2E/DX2                !
 ! A122  A(59,62,70)           122.0664         estimate D2E/DX2                !
 ! A123  A(64,62,70)           117.4143         estimate D2E/DX2                !
 ! A124  A(62,64,65)           121.5146         estimate D2E/DX2                !
 ! A125  A(62,64,66)           119.227          estimate D2E/DX2                !
 ! A126  A(65,64,66)           119.2582         estimate D2E/DX2                !
 ! A127  A(64,65,67)           121.1            estimate D2E/DX2                !
 ! A128  A(64,65,68)           119.0055         estimate D2E/DX2                !
 ! A129  A(67,65,68)           119.8945         estimate D2E/DX2                !
 ! A130  A(65,67,69)           117.3506         estimate D2E/DX2                !
 ! A131  A(65,67,73)           121.5709         estimate D2E/DX2                !
 ! A132  A(69,67,73)           121.0784         estimate D2E/DX2                !
 ! A133  A(67,69,70)           121.5339         estimate D2E/DX2                !
 ! A134  A(67,69,71)           119.2027         estimate D2E/DX2                !
 ! A135  A(70,69,71)           119.263          estimate D2E/DX2                !
 ! A136  A(62,70,69)           121.0837         estimate D2E/DX2                !
 ! A137  A(62,70,72)           119.8903         estimate D2E/DX2                !
 ! A138  A(69,70,72)           119.026          estimate D2E/DX2                !
 ! A139  A(67,73,74)           111.5413         estimate D2E/DX2                !
 ! A140  A(67,73,78)           112.6253         estimate D2E/DX2                !
 ! A141  A(67,73,79)           107.1124         estimate D2E/DX2                !
 ! A142  A(74,73,78)           110.7145         estimate D2E/DX2                !
 ! A143  A(74,73,79)           107.3969         estimate D2E/DX2                !
 ! A144  A(78,73,79)           107.144          estimate D2E/DX2                !
 ! A145  A(73,74,75)           111.0632         estimate D2E/DX2                !
 ! A146  A(73,74,76)           110.7445         estimate D2E/DX2                !
 ! A147  A(73,74,77)           111.3316         estimate D2E/DX2                !
 ! A148  A(75,74,76)           108.255          estimate D2E/DX2                !
 ! A149  A(75,74,77)           107.6822         estimate D2E/DX2                !
 ! A150  A(76,74,77)           107.6169         estimate D2E/DX2                !
 ! A151  A(73,78,80)           114.2457         estimate D2E/DX2                !
 ! A152  A(73,78,81)           109.1251         estimate D2E/DX2                !
 ! A153  A(73,78,82)           108.1602         estimate D2E/DX2                !
 ! A154  A(80,78,81)           109.5909         estimate D2E/DX2                !
 ! A155  A(80,78,82)           109.3595         estimate D2E/DX2                !
 ! A156  A(81,78,82)           106.0297         estimate D2E/DX2                !
 ! A157  A(78,80,83)           111.3671         estimate D2E/DX2                !
 ! A158  A(78,80,84)           111.0328         estimate D2E/DX2                !
 ! A159  A(78,80,85)           111.1097         estimate D2E/DX2                !
 ! A160  A(83,80,84)           107.9198         estimate D2E/DX2                !
 ! A161  A(83,80,85)           107.6183         estimate D2E/DX2                !
 ! A162  A(84,80,85)           107.6227         estimate D2E/DX2                !
 ! D1    D(3,1,2,5)            175.9196         estimate D2E/DX2                !
 ! D2    D(3,1,2,6)             59.6842         estimate D2E/DX2                !
 ! D3    D(3,1,2,30)           -56.0887         estimate D2E/DX2                !
 ! D4    D(4,1,2,5)             55.5722         estimate D2E/DX2                !
 ! D5    D(4,1,2,6)            -60.6633         estimate D2E/DX2                !
 ! D6    D(4,1,2,30)          -176.4361         estimate D2E/DX2                !
 ! D7    D(29,1,2,5)           -64.1564         estimate D2E/DX2                !
 ! D8    D(29,1,2,6)           179.6082         estimate D2E/DX2                !
 ! D9    D(29,1,2,30)           63.8353         estimate D2E/DX2                !
 ! D10   D(1,2,5,7)             67.7129         estimate D2E/DX2                !
 ! D11   D(1,2,5,13)          -109.8125         estimate D2E/DX2                !
 ! D12   D(6,2,5,7)           -175.7786         estimate D2E/DX2                !
 ! D13   D(6,2,5,13)             6.6961         estimate D2E/DX2                !
 ! D14   D(30,2,5,7)           -57.9073         estimate D2E/DX2                !
 ! D15   D(30,2,5,13)          124.5673         estimate D2E/DX2                !
 ! D16   D(1,2,30,31)          175.3985         estimate D2E/DX2                !
 ! D17   D(1,2,30,32)          -59.3929         estimate D2E/DX2                !
 ! D18   D(1,2,30,33)           54.1573         estimate D2E/DX2                !
 ! D19   D(5,2,30,31)          -58.6979         estimate D2E/DX2                !
 ! D20   D(5,2,30,32)           66.5107         estimate D2E/DX2                !
 ! D21   D(5,2,30,33)         -179.9391         estimate D2E/DX2                !
 ! D22   D(6,2,30,31)           59.2567         estimate D2E/DX2                !
 ! D23   D(6,2,30,32)         -175.5347         estimate D2E/DX2                !
 ! D24   D(6,2,30,33)          -61.9845         estimate D2E/DX2                !
 ! D25   D(2,5,7,8)           -177.49           estimate D2E/DX2                !
 ! D26   D(2,5,7,9)              2.8609         estimate D2E/DX2                !
 ! D27   D(13,5,7,8)             0.1084         estimate D2E/DX2                !
 ! D28   D(13,5,7,9)          -179.5407         estimate D2E/DX2                !
 ! D29   D(2,5,13,12)          177.4494         estimate D2E/DX2                !
 ! D30   D(2,5,13,15)           -2.1264         estimate D2E/DX2                !
 ! D31   D(7,5,13,12)           -0.1852         estimate D2E/DX2                !
 ! D32   D(7,5,13,15)         -179.7611         estimate D2E/DX2                !
 ! D33   D(5,7,8,10)             0.1412         estimate D2E/DX2                !
 ! D34   D(5,7,8,11)          -179.8138         estimate D2E/DX2                !
 ! D35   D(9,7,8,10)           179.7932         estimate D2E/DX2                !
 ! D36   D(9,7,8,11)            -0.1618         estimate D2E/DX2                !
 ! D37   D(7,8,10,12)           -0.3069         estimate D2E/DX2                !
 ! D38   D(7,8,10,16)          179.2873         estimate D2E/DX2                !
 ! D39   D(11,8,10,12)         179.6477         estimate D2E/DX2                !
 ! D40   D(11,8,10,16)          -0.7581         estimate D2E/DX2                !
 ! D41   D(8,10,12,13)           0.2301         estimate D2E/DX2                !
 ! D42   D(8,10,12,14)        -179.919          estimate D2E/DX2                !
 ! D43   D(16,10,12,13)       -179.367          estimate D2E/DX2                !
 ! D44   D(16,10,12,14)          0.4839         estimate D2E/DX2                !
 ! D45   D(8,10,16,17)         -61.0809         estimate D2E/DX2                !
 ! D46   D(8,10,16,21)          64.3402         estimate D2E/DX2                !
 ! D47   D(8,10,16,22)        -178.2501         estimate D2E/DX2                !
 ! D48   D(12,10,16,17)        118.499          estimate D2E/DX2                !
 ! D49   D(12,10,16,21)       -116.08           estimate D2E/DX2                !
 ! D50   D(12,10,16,22)          1.3298         estimate D2E/DX2                !
 ! D51   D(10,12,13,5)           0.0146         estimate D2E/DX2                !
 ! D52   D(10,12,13,15)        179.5906         estimate D2E/DX2                !
 ! D53   D(14,12,13,5)        -179.8363         estimate D2E/DX2                !
 ! D54   D(14,12,13,15)         -0.2603         estimate D2E/DX2                !
 ! D55   D(10,16,17,18)        -55.5053         estimate D2E/DX2                !
 ! D56   D(10,16,17,19)       -175.7792         estimate D2E/DX2                !
 ! D57   D(10,16,17,20)         64.5254         estimate D2E/DX2                !
 ! D58   D(21,16,17,18)        178.0161         estimate D2E/DX2                !
 ! D59   D(21,16,17,19)         57.7422         estimate D2E/DX2                !
 ! D60   D(21,16,17,20)        -61.9532         estimate D2E/DX2                !
 ! D61   D(22,16,17,18)         61.4659         estimate D2E/DX2                !
 ! D62   D(22,16,17,19)        -58.808          estimate D2E/DX2                !
 ! D63   D(22,16,17,20)       -178.5034         estimate D2E/DX2                !
 ! D64   D(10,16,21,23)         61.3505         estimate D2E/DX2                !
 ! D65   D(10,16,21,24)        -61.6552         estimate D2E/DX2                !
 ! D66   D(10,16,21,25)       -176.6441         estimate D2E/DX2                !
 ! D67   D(17,16,21,23)       -172.8224         estimate D2E/DX2                !
 ! D68   D(17,16,21,24)         64.1719         estimate D2E/DX2                !
 ! D69   D(17,16,21,25)        -50.817          estimate D2E/DX2                !
 ! D70   D(22,16,21,23)        -56.0649         estimate D2E/DX2                !
 ! D71   D(22,16,21,24)       -179.0706         estimate D2E/DX2                !
 ! D72   D(22,16,21,25)         65.9405         estimate D2E/DX2                !
 ! D73   D(16,21,23,26)        -62.4539         estimate D2E/DX2                !
 ! D74   D(16,21,23,27)        177.4067         estimate D2E/DX2                !
 ! D75   D(16,21,23,28)         57.7845         estimate D2E/DX2                !
 ! D76   D(24,21,23,26)         60.3825         estimate D2E/DX2                !
 ! D77   D(24,21,23,27)        -59.7569         estimate D2E/DX2                !
 ! D78   D(24,21,23,28)       -179.3791         estimate D2E/DX2                !
 ! D79   D(25,21,23,26)        176.2754         estimate D2E/DX2                !
 ! D80   D(25,21,23,27)         56.136          estimate D2E/DX2                !
 ! D81   D(25,21,23,28)        -63.4862         estimate D2E/DX2                !
 ! D82   D(2,30,31,34)         100.8899         estimate D2E/DX2                !
 ! D83   D(2,30,31,35)         -15.13           estimate D2E/DX2                !
 ! D84   D(2,30,31,58)        -127.7272         estimate D2E/DX2                !
 ! D85   D(32,30,31,34)        -23.5233         estimate D2E/DX2                !
 ! D86   D(32,30,31,35)       -139.5431         estimate D2E/DX2                !
 ! D87   D(32,30,31,58)        107.8597         estimate D2E/DX2                !
 ! D88   D(33,30,31,34)       -139.5767         estimate D2E/DX2                !
 ! D89   D(33,30,31,35)        104.4034         estimate D2E/DX2                !
 ! D90   D(33,30,31,58)         -8.1937         estimate D2E/DX2                !
 ! D91   D(30,31,34,36)         44.0005         estimate D2E/DX2                !
 ! D92   D(30,31,34,42)       -137.5883         estimate D2E/DX2                !
 ! D93   D(35,31,34,36)        160.7529         estimate D2E/DX2                !
 ! D94   D(35,31,34,42)        -20.8358         estimate D2E/DX2                !
 ! D95   D(58,31,34,36)        -86.8761         estimate D2E/DX2                !
 ! D96   D(58,31,34,42)         91.5351         estimate D2E/DX2                !
 ! D97   D(30,31,58,59)        -55.3431         estimate D2E/DX2                !
 ! D98   D(30,31,58,60)        178.2592         estimate D2E/DX2                !
 ! D99   D(30,31,58,61)         65.0022         estimate D2E/DX2                !
 ! D100  D(34,31,58,59)         76.8641         estimate D2E/DX2                !
 ! D101  D(34,31,58,60)        -49.5336         estimate D2E/DX2                !
 ! D102  D(34,31,58,61)       -162.7905         estimate D2E/DX2                !
 ! D103  D(35,31,58,59)       -169.7554         estimate D2E/DX2                !
 ! D104  D(35,31,58,60)         63.847          estimate D2E/DX2                !
 ! D105  D(35,31,58,61)        -49.41           estimate D2E/DX2                !
 ! D106  D(31,34,36,37)        177.9854         estimate D2E/DX2                !
 ! D107  D(31,34,36,38)         -0.7435         estimate D2E/DX2                !
 ! D108  D(42,34,36,37)         -0.4565         estimate D2E/DX2                !
 ! D109  D(42,34,36,38)       -179.1853         estimate D2E/DX2                !
 ! D110  D(31,34,42,41)       -178.1799         estimate D2E/DX2                !
 ! D111  D(31,34,42,44)          2.3337         estimate D2E/DX2                !
 ! D112  D(36,34,42,41)          0.3343         estimate D2E/DX2                !
 ! D113  D(36,34,42,44)       -179.152          estimate D2E/DX2                !
 ! D114  D(34,36,37,39)          0.2741         estimate D2E/DX2                !
 ! D115  D(34,36,37,40)       -179.4411         estimate D2E/DX2                !
 ! D116  D(38,36,37,39)        179.0229         estimate D2E/DX2                !
 ! D117  D(38,36,37,40)         -0.6924         estimate D2E/DX2                !
 ! D118  D(36,37,39,41)          0.0497         estimate D2E/DX2                !
 ! D119  D(36,37,39,45)        179.1748         estimate D2E/DX2                !
 ! D120  D(40,37,39,41)        179.7645         estimate D2E/DX2                !
 ! D121  D(40,37,39,45)         -1.1104         estimate D2E/DX2                !
 ! D122  D(37,39,41,42)         -0.173          estimate D2E/DX2                !
 ! D123  D(37,39,41,43)        179.4746         estimate D2E/DX2                !
 ! D124  D(45,39,41,42)       -179.2923         estimate D2E/DX2                !
 ! D125  D(45,39,41,43)          0.3554         estimate D2E/DX2                !
 ! D126  D(37,39,45,46)       -113.2422         estimate D2E/DX2                !
 ! D127  D(37,39,45,50)        121.5484         estimate D2E/DX2                !
 ! D128  D(37,39,45,51)          3.8841         estimate D2E/DX2                !
 ! D129  D(41,39,45,46)         65.844          estimate D2E/DX2                !
 ! D130  D(41,39,45,50)        -59.3654         estimate D2E/DX2                !
 ! D131  D(41,39,45,51)       -177.0298         estimate D2E/DX2                !
 ! D132  D(39,41,42,34)         -0.0225         estimate D2E/DX2                !
 ! D133  D(39,41,42,44)        179.4642         estimate D2E/DX2                !
 ! D134  D(43,41,42,34)       -179.6735         estimate D2E/DX2                !
 ! D135  D(43,41,42,44)         -0.1869         estimate D2E/DX2                !
 ! D136  D(39,45,46,47)        -64.2853         estimate D2E/DX2                !
 ! D137  D(39,45,46,48)        175.869          estimate D2E/DX2                !
 ! D138  D(39,45,46,49)         55.5216         estimate D2E/DX2                !
 ! D139  D(50,45,46,47)         62.0827         estimate D2E/DX2                !
 ! D140  D(50,45,46,48)        -57.7629         estimate D2E/DX2                !
 ! D141  D(50,45,46,49)       -178.1104         estimate D2E/DX2                !
 ! D142  D(51,45,46,47)        178.7549         estimate D2E/DX2                !
 ! D143  D(51,45,46,48)         58.9092         estimate D2E/DX2                !
 ! D144  D(51,45,46,49)        -61.4382         estimate D2E/DX2                !
 ! D145  D(39,45,50,52)        -62.3938         estimate D2E/DX2                !
 ! D146  D(39,45,50,53)        175.5859         estimate D2E/DX2                !
 ! D147  D(39,45,50,54)         60.6858         estimate D2E/DX2                !
 ! D148  D(46,45,50,52)        172.063          estimate D2E/DX2                !
 ! D149  D(46,45,50,53)         50.0426         estimate D2E/DX2                !
 ! D150  D(46,45,50,54)        -64.8575         estimate D2E/DX2                !
 ! D151  D(51,45,50,52)         55.2469         estimate D2E/DX2                !
 ! D152  D(51,45,50,53)        -66.7735         estimate D2E/DX2                !
 ! D153  D(51,45,50,54)        178.3264         estimate D2E/DX2                !
 ! D154  D(45,50,52,55)        -60.8279         estimate D2E/DX2                !
 ! D155  D(45,50,52,56)        179.5688         estimate D2E/DX2                !
 ! D156  D(45,50,52,57)         59.0152         estimate D2E/DX2                !
 ! D157  D(53,50,52,55)         60.5668         estimate D2E/DX2                !
 ! D158  D(53,50,52,56)        -59.0366         estimate D2E/DX2                !
 ! D159  D(53,50,52,57)       -179.5902         estimate D2E/DX2                !
 ! D160  D(54,50,52,55)        176.3174         estimate D2E/DX2                !
 ! D161  D(54,50,52,56)         56.7141         estimate D2E/DX2                !
 ! D162  D(54,50,52,57)        -63.8395         estimate D2E/DX2                !
 ! D163  D(31,58,59,62)        -77.1073         estimate D2E/DX2                !
 ! D164  D(31,58,59,63)         48.498          estimate D2E/DX2                !
 ! D165  D(31,58,59,86)        161.5715         estimate D2E/DX2                !
 ! D166  D(60,58,59,62)         48.6993         estimate D2E/DX2                !
 ! D167  D(60,58,59,63)        174.3045         estimate D2E/DX2                !
 ! D168  D(60,58,59,86)        -72.622          estimate D2E/DX2                !
 ! D169  D(61,58,59,62)        162.6527         estimate D2E/DX2                !
 ! D170  D(61,58,59,63)        -71.742          estimate D2E/DX2                !
 ! D171  D(61,58,59,86)         41.3315         estimate D2E/DX2                !
 ! D172  D(58,59,62,64)        133.8783         estimate D2E/DX2                !
 ! D173  D(58,59,62,70)        -50.1719         estimate D2E/DX2                !
 ! D174  D(63,59,62,64)          7.8869         estimate D2E/DX2                !
 ! D175  D(63,59,62,70)       -176.1633         estimate D2E/DX2                !
 ! D176  D(86,59,62,64)       -105.4757         estimate D2E/DX2                !
 ! D177  D(86,59,62,70)         70.4741         estimate D2E/DX2                !
 ! D178  D(59,62,64,65)        176.6433         estimate D2E/DX2                !
 ! D179  D(59,62,64,66)         -3.1934         estimate D2E/DX2                !
 ! D180  D(70,62,64,65)          0.5095         estimate D2E/DX2                !
 ! D181  D(70,62,64,66)       -179.3272         estimate D2E/DX2                !
 ! D182  D(59,62,70,69)       -176.703          estimate D2E/DX2                !
 ! D183  D(59,62,70,72)          3.2708         estimate D2E/DX2                !
 ! D184  D(64,62,70,69)         -0.6381         estimate D2E/DX2                !
 ! D185  D(64,62,70,72)        179.3357         estimate D2E/DX2                !
 ! D186  D(62,64,65,67)         -0.0731         estimate D2E/DX2                !
 ! D187  D(62,64,65,68)        179.9004         estimate D2E/DX2                !
 ! D188  D(66,64,65,67)        179.7636         estimate D2E/DX2                !
 ! D189  D(66,64,65,68)         -0.2629         estimate D2E/DX2                !
 ! D190  D(64,65,67,69)         -0.2427         estimate D2E/DX2                !
 ! D191  D(64,65,67,73)        179.655          estimate D2E/DX2                !
 ! D192  D(68,65,67,69)        179.784          estimate D2E/DX2                !
 ! D193  D(68,65,67,73)         -0.3183         estimate D2E/DX2                !
 ! D194  D(65,67,69,70)          0.1123         estimate D2E/DX2                !
 ! D195  D(65,67,69,71)       -179.6591         estimate D2E/DX2                !
 ! D196  D(73,67,69,70)       -179.7859         estimate D2E/DX2                !
 ! D197  D(73,67,69,71)          0.4427         estimate D2E/DX2                !
 ! D198  D(65,67,73,74)        -61.3594         estimate D2E/DX2                !
 ! D199  D(65,67,73,78)         63.8453         estimate D2E/DX2                !
 ! D200  D(65,67,73,79)       -178.6087         estimate D2E/DX2                !
 ! D201  D(69,67,73,74)        118.5345         estimate D2E/DX2                !
 ! D202  D(69,67,73,78)       -116.2609         estimate D2E/DX2                !
 ! D203  D(69,67,73,79)          1.2852         estimate D2E/DX2                !
 ! D204  D(67,69,70,62)          0.3385         estimate D2E/DX2                !
 ! D205  D(67,69,70,72)       -179.6356         estimate D2E/DX2                !
 ! D206  D(71,69,70,62)       -179.8902         estimate D2E/DX2                !
 ! D207  D(71,69,70,72)          0.1357         estimate D2E/DX2                !
 ! D208  D(67,73,74,75)        -55.2317         estimate D2E/DX2                !
 ! D209  D(67,73,74,76)       -175.5507         estimate D2E/DX2                !
 ! D210  D(67,73,74,77)         64.7568         estimate D2E/DX2                !
 ! D211  D(78,73,74,75)        178.5083         estimate D2E/DX2                !
 ! D212  D(78,73,74,76)         58.1892         estimate D2E/DX2                !
 ! D213  D(78,73,74,77)        -61.5033         estimate D2E/DX2                !
 ! D214  D(79,73,74,75)         61.8455         estimate D2E/DX2                !
 ! D215  D(79,73,74,76)        -58.4736         estimate D2E/DX2                !
 ! D216  D(79,73,74,77)       -178.1661         estimate D2E/DX2                !
 ! D217  D(67,73,78,80)         61.6535         estimate D2E/DX2                !
 ! D218  D(67,73,78,81)        -61.3985         estimate D2E/DX2                !
 ! D219  D(67,73,78,82)       -176.3173         estimate D2E/DX2                !
 ! D220  D(74,73,78,80)       -172.6927         estimate D2E/DX2                !
 ! D221  D(74,73,78,81)         64.2553         estimate D2E/DX2                !
 ! D222  D(74,73,78,82)        -50.6636         estimate D2E/DX2                !
 ! D223  D(79,73,78,80)        -55.8739         estimate D2E/DX2                !
 ! D224  D(79,73,78,81)       -178.9259         estimate D2E/DX2                !
 ! D225  D(79,73,78,82)         66.1553         estimate D2E/DX2                !
 ! D226  D(73,78,80,83)        -60.7037         estimate D2E/DX2                !
 ! D227  D(73,78,80,84)        179.0038         estimate D2E/DX2                !
 ! D228  D(73,78,80,85)         59.2589         estimate D2E/DX2                !
 ! D229  D(81,78,80,83)         62.0957         estimate D2E/DX2                !
 ! D230  D(81,78,80,84)        -58.1969         estimate D2E/DX2                !
 ! D231  D(81,78,80,85)       -177.9417         estimate D2E/DX2                !
 ! D232  D(82,78,80,83)        177.9267         estimate D2E/DX2                !
 ! D233  D(82,78,80,84)         57.6342         estimate D2E/DX2                !
 ! D234  D(82,78,80,85)        -62.1107         estimate D2E/DX2                !
 --------------------------------------------------------------------------------
 Trust Radius=3.00D-01 FncErr=1.00D-07 GrdErr=1.00D-06 EigMax=2.50D+02 EigMin=1.00D-04
 Number of steps in this run=    494 maximum allowed number of steps=    516.
 GradGradGradGradGradGradGradGradGradGradGradGradGradGradGradGradGradGrad

 Stoichiometry    C36H50
 Framework group  C1[X(C36H50)]
 Deg. of freedom   252
 Full point group                 C1      NOp   1
 Largest Abelian subgroup         C1      NOp   1
 Largest concise Abelian subgroup C1      NOp   1
                         Standard orientation:                         
 ---------------------------------------------------------------------
 Center     Atomic      Atomic             Coordinates (Angstroms)
 Number     Number       Type             X           Y           Z
 ---------------------------------------------------------------------
      1          6           0       -2.847420    4.405643   -1.276958
      2          6           0       -2.488432    3.422997   -0.144277
      3          1           0       -2.243311    5.318838   -1.210023
      4          1           0       -3.904031    4.690258   -1.229748
      5          6           0       -3.396323    2.201115   -0.179137
      6          1           0       -2.684139    3.937491    0.807998
      7          6           0       -3.342349    1.264927   -1.222890
      8          6           0       -4.215142    0.180842   -1.265718
      9          1           0       -2.604519    1.378253   -2.013345
     10          6           0       -5.184103   -0.016206   -0.269102
     11          1           0       -4.138154   -0.523698   -2.090637
     12          6           0       -5.234647    0.915382    0.772650
     13          6           0       -4.358331    2.001782    0.816547
     14          1           0       -5.972624    0.792555    1.562883
     15          1           0       -4.430082    2.711401    1.638720
     16          6           0       -6.152571   -1.190673   -0.317765
     17          6           0       -7.035282   -1.144679   -1.579809
     18          1           0       -7.569927   -0.191450   -1.654022
     19          1           0       -7.776712   -1.952594   -1.564156
     20          1           0       -6.436123   -1.261541   -2.490686
     21          6           0       -5.440510   -2.557548   -0.195103
     22          1           0       -6.818655   -1.095318    0.552291
     23          6           0       -4.679471   -2.752624    1.119499
     24          1           0       -4.750617   -2.683368   -1.041256
     25          1           0       -6.197634   -3.347248   -0.299640
     26          1           0       -3.871950   -2.020600    1.225380
     27          1           0       -4.235118   -3.753421    1.168894
     28          1           0       -5.347811   -2.643184    1.983173
     29          1           0       -2.668337    3.956480   -2.261179
     30          6           0       -0.974902    3.101694   -0.171971
     31          6           0       -0.482439    2.205824    0.998525
     32          1           0       -0.715015    2.657782   -1.139910
     33          1           0       -0.451667    4.066215   -0.141288
     34          6           0       -0.284283    0.734032    0.643380
     35          1           0       -1.279901    2.214691    1.754407
     36          6           0        0.341600    0.296501   -0.529433
     37          6           0        0.533028   -1.062384   -0.783856
     38          1           0        0.708104    1.017169   -1.254015
     39          6           0        0.104359   -2.044400    0.116091
     40          1           0        1.032012   -1.363718   -1.702722
     41          6           0       -0.529184   -1.608499    1.288985
     42          6           0       -0.717409   -0.251433    1.542992
     43          1           0       -0.887521   -2.335038    2.014788
     44          1           0       -1.220852    0.051106    2.459264
     45          6           0        0.303126   -3.524918   -0.182955
     46          6           0       -1.045133   -4.239180   -0.400181
     47          1           0       -1.651052   -4.228351    0.513553
     48          1           0       -0.889687   -5.286547   -0.686530
     49          1           0       -1.627585   -3.751318   -1.189369
     50          6           0        1.137295   -4.248231    0.898865
     51          1           0        0.866182   -3.591978   -1.125443
     52          6           0        2.567945   -3.721344    1.043561
     53          1           0        1.166519   -5.318620    0.651737
     54          1           0        0.617916   -4.175315    1.864470
     55          1           0        3.128554   -3.843959    0.108088
     56          1           0        3.109986   -4.263213    1.827358
     57          1           0        2.578480   -2.656056    1.297628
     58          6           0        0.735925    2.829084    1.746504
     59          6           0        2.004675    3.214038    0.952474
     60          1           0        1.009089    2.162954    2.574519
     61          1           0        0.369215    3.753482    2.214725
     62          6           0        2.958485    2.111772    0.527572
     63          1           0        1.721067    3.795821    0.066754
     64          6           0        3.461040    2.073907   -0.779827
     65          6           0        4.390971    1.113521   -1.175585
     66          1           0        3.119334    2.813078   -1.502228
     67          6           0        4.860903    0.146906   -0.276028
     68          1           0        4.752715    1.120834   -2.201378
     69          6           0        4.362966    0.189590    1.032904
     70          6           0        3.434591    1.152286    1.429249
     71          1           0        4.711663   -0.543267    1.757739
     72          1           0        3.079810    1.151445    2.457109
     73          6           0        5.870897   -0.911980   -0.698945
     74          6           0        5.314233   -1.808297   -1.821640
     75          1           0        4.361899   -2.262257   -1.527231
     76          1           0        6.019102   -2.613560   -2.061313
     77          1           0        5.140164   -1.235225   -2.740295
     78          6           0        7.233088   -0.305004   -1.108290
     79          1           0        6.051726   -1.554128    0.175267
     80          6           0        7.944269    0.457692    0.013309
     81          1           0        7.086294    0.360220   -1.970760
     82          1           0        7.879496   -1.120799   -1.460837
     83          1           0        7.342797    1.302737    0.364911
     84          1           0        8.909311    0.849488   -0.327911
     85          1           0        8.136296   -0.194460    0.874644
     86          1           0        2.566514    3.915122    1.587799
 ---------------------------------------------------------------------
 Rotational constants (GHZ):           0.1638066           0.0617552           0.0494159
 Standard basis: 6-31G(d) (6D, 7F)
 There are   640 symmetry adapted cartesian basis functions of A   symmetry.
 There are   640 symmetry adapted basis functions of A   symmetry.
   640 basis functions,  1208 primitive gaussians,   640 cartesian basis functions
   133 alpha electrons      133 beta electrons
       nuclear repulsion energy      3927.5041956850 Hartrees.
 NAtoms=   86 NActive=   86 NUniq=   86 SFac= 1.00D+00 NAtFMM=   60 NAOKFM=T Big=T
 Integral buffers will be    131072 words long.
 Raffenetti 2 integral format.
 Two-electron integral symmetry is turned on.
 One-electron integrals computed using PRISM.
 NBasis=   640 RedAO= T EigKep=  4.04D-04  NBF=   640
 NBsUse=   640 1.00D-06 EigRej= -1.00D+00 NBFU=   640
 Initial guess from the checkpoint file:  "dvb_iso.chk"
 B after Tr=     0.000000   -0.000000   -0.000000
         Rot=    1.000000    0.000000    0.000000   -0.000000 Ang=   0.00 deg.
 Requested convergence on RMS density matrix=1.00D-08 within 128 cycles.
 Requested convergence on MAX density matrix=1.00D-06.
 Requested convergence on             energy=1.00D-06.
 No special actions if energy rises.
 SCF Done:  E(RB3LYP) =  -1401.99201411     A.U. after    1 cycles
            NFock=  1  Conv=0.39D-08     -V/T= 2.0101

 **********************************************************************

            Population analysis using the SCF density.

 **********************************************************************

 Orbital symmetries:
       Occupied  (A) (A) (A) (A) (A) (A) (A) (A) (A) (A) (A) (A)
                 (A) (A) (A) (A) (A) (A) (A) (A) (A) (A) (A) (A)
                 (A) (A) (A) (A) (A) (A) (A) (A) (A) (A) (A) (A)
                 (A) (A) (A) (A) (A) (A) (A) (A) (A) (A) (A) (A)
                 (A) (A) (A) (A) (A) (A) (A) (A) (A) (A) (A) (A)
                 (A) (A) (A) (A) (A) (A) (A) (A) (A) (A) (A) (A)
                 (A) (A) (A) (A) (A) (A) (A) (A) (A) (A) (A) (A)
                 (A) (A) (A) (A) (A) (A) (A) (A) (A) (A) (A) (A)
                 (A) (A) (A) (A) (A) (A) (A) (A) (A) (A) (A) (A)
                 (A) (A) (A) (A) (A) (A) (A) (A) (A) (A) (A) (A)
                 (A) (A) (A) (A) (A) (A) (A) (A) (A) (A) (A) (A)
                 (A)
       Virtual   (A) (A) (A) (A) (A) (A) (A) (A) (A) (A) (A) (A)
                 (A) (A) (A) (A) (A) (A) (A) (A) (A) (A) (A) (A)
                 (A) (A) (A) (A) (A) (A) (A) (A) (A) (A) (A) (A)
                 (A) (A) (A) (A) (A) (A) (A) (A) (A) (A) (A) (A)
                 (A) (A) (A) (A) (A) (A) (A) (A) (A) (A) (A) (A)
                 (A) (A) (A) (A) (A) (A) (A) (A) (A) (A) (A) (A)
                 (A) (A) (A) (A) (A) (A) (A) (A) (A) (A) (A) (A)
                 (A) (A) (A) (A) (A) (A) (A) (A) (A) (A) (A) (A)
                 (A) (A) (A) (A) (A) (A) (A) (A) (A) (A) (A) (A)
                 (A) (A) (A) (A) (A) (A) (A) (A) (A) (A) (A) (A)
                 (A) (A) (A) (A) (A) (A) (A) (A) (A) (A) (A) (A)
                 (A) (A) (A) (A) (A) (A) (A) (A) (A) (A) (A) (A)
                 (A) (A) (A) (A) (A) (A) (A) (A) (A) (A) (A) (A)
                 (A) (A) (A) (A) (A) (A) (A) (A) (A) (A) (A) (A)
                 (A) (A) (A) (A) (A) (A) (A) (A) (A) (A) (A) (A)
                 (A) (A) (A) (A) (A) (A) (A) (A) (A) (A) (A) (A)
                 (A) (A) (A) (A) (A) (A) (A) (A) (A) (A) (A) (A)
                 (A) (A) (A) (A) (A) (A) (A) (A) (A) (A) (A) (A)
                 (A) (A) (A) (A) (A) (A) (A) (A) (A) (A) (A) (A)
                 (A) (A) (A) (A) (A) (A) (A) (A) (A) (A) (A) (A)
                 (A) (A) (A) (A) (A) (A) (A) (A) (A) (A) (A) (A)
                 (A) (A) (A) (A) (A) (A) (A) (A) (A) (A) (A) (A)
                 (A) (A) (A) (A) (A) (A) (A) (A) (A) (A) (A) (A)
                 (A) (A) (A) (A) (A) (A) (A) (A) (A) (A) (A) (A)
                 (A) (A) (A) (A) (A) (A) (A) (A) (A) (A) (A) (A)
                 (A) (A) (A) (A) (A) (A) (A) (A) (A) (A) (A) (A)
                 (A) (A) (A) (A) (A) (A) (A) (A) (A) (A) (A) (A)
                 (A) (A) (A) (A) (A) (A) (A) (A) (A) (A) (A) (A)
                 (A) (A) (A) (A) (A) (A) (A) (A) (A) (A) (A) (A)
                 (A) (A) (A) (A) (A) (A) (A) (A) (A) (A) (A) (A)
                 (A) (A) (A) (A) (A) (A) (A) (A) (A) (A) (A) (A)
                 (A) (A) (A) (A) (A) (A) (A) (A) (A) (A) (A) (A)
                 (A) (A) (A) (A) (A) (A) (A) (A) (A) (A) (A) (A)
                 (A) (A) (A) (A) (A) (A) (A) (A) (A) (A) (A) (A)
                 (A) (A) (A) (A) (A) (A) (A) (A) (A) (A) (A) (A)
                 (A) (A) (A) (A) (A) (A) (A) (A) (A) (A) (A) (A)
                 (A) (A) (A) (A) (A) (A) (A) (A) (A) (A) (A) (A)
                 (A) (A) (A) (A) (A) (A) (A) (A) (A) (A) (A) (A)
                 (A) (A) (A) (A) (A) (A) (A) (A) (A) (A) (A) (A)
                 (A) (A) (A) (A) (A) (A) (A) (A) (A) (A) (A) (A)
                 (A) (A) (A) (A) (A) (A) (A) (A) (A) (A) (A) (A)
                 (A) (A) (A) (A) (A) (A) (A) (A) (A) (A) (A) (A)
                 (A) (A) (A)
 The electronic state is 1-A.
 Alpha  occ. eigenvalues --  -10.19012 -10.18772 -10.18687 -10.18600 -10.18571
 Alpha  occ. eigenvalues --  -10.18488 -10.18420 -10.18307 -10.18300 -10.18280
 Alpha  occ. eigenvalues --  -10.18227 -10.18037 -10.17950 -10.17898 -10.17848
 Alpha  occ. eigenvalues --  -10.17842 -10.17832 -10.17795 -10.17781 -10.17736
 Alpha  occ. eigenvalues --  -10.17721 -10.17716 -10.17693 -10.17530 -10.17517
 Alpha  occ. eigenvalues --  -10.17489 -10.17432 -10.17394 -10.17314 -10.17263
 Alpha  occ. eigenvalues --  -10.17086 -10.17008 -10.16892 -10.16681 -10.16506
 Alpha  occ. eigenvalues --  -10.16447  -0.85321  -0.85032  -0.84619  -0.81877
 Alpha  occ. eigenvalues --   -0.80610  -0.80013  -0.78713  -0.77320  -0.75018
 Alpha  occ. eigenvalues --   -0.73334  -0.73248  -0.72980  -0.72813  -0.72633
 Alpha  occ. eigenvalues --   -0.71908  -0.70592  -0.70408  -0.68779  -0.65185
 Alpha  occ. eigenvalues --   -0.63082  -0.62987  -0.62173  -0.61007  -0.60732
 Alpha  occ. eigenvalues --   -0.60117  -0.59727  -0.59088  -0.58337  -0.56618
 Alpha  occ. eigenvalues --   -0.55791  -0.54879  -0.54863  -0.53997  -0.49613
 Alpha  occ. eigenvalues --   -0.48858  -0.48602  -0.47025  -0.46538  -0.45577
 Alpha  occ. eigenvalues --   -0.45211  -0.44658  -0.43985  -0.43844  -0.43705
 Alpha  occ. eigenvalues --   -0.43253  -0.42850  -0.42582  -0.42514  -0.42321
 Alpha  occ. eigenvalues --   -0.41538  -0.41397  -0.41290  -0.41015  -0.40891
 Alpha  occ. eigenvalues --   -0.40702  -0.40573  -0.40393  -0.40247  -0.40157
 Alpha  occ. eigenvalues --   -0.39825  -0.39441  -0.39136  -0.38065  -0.37043
 Alpha  occ. eigenvalues --   -0.36648  -0.36513  -0.36159  -0.35609  -0.35314
 Alpha  occ. eigenvalues --   -0.34947  -0.34741  -0.34705  -0.34447  -0.34277
 Alpha  occ. eigenvalues --   -0.33798  -0.33641  -0.33202  -0.32967  -0.32667
 Alpha  occ. eigenvalues --   -0.32314  -0.32274  -0.32086  -0.31766  -0.31540
 Alpha  occ. eigenvalues --   -0.31482  -0.31172  -0.30994  -0.30743  -0.30397
 Alpha  occ. eigenvalues --   -0.30277  -0.29947  -0.23991  -0.23926  -0.23546
 Alpha  occ. eigenvalues --   -0.23079  -0.22379  -0.21313
 Alpha virt. eigenvalues --    0.00305   0.00473   0.00755   0.00927   0.01329
 Alpha virt. eigenvalues --    0.01846   0.08061   0.08343   0.08601   0.09608
 Alpha virt. eigenvalues --    0.09677   0.10105   0.10681   0.10880   0.11525
 Alpha virt. eigenvalues --    0.11821   0.12034   0.12412   0.12609   0.13013
 Alpha virt. eigenvalues --    0.13194   0.14029   0.14371   0.14508   0.14717
 Alpha virt. eigenvalues --    0.15050   0.15426   0.15673   0.15755   0.16125
 Alpha virt. eigenvalues --    0.16392   0.16694   0.16733   0.17042   0.17269
 Alpha virt. eigenvalues --    0.17624   0.17785   0.17926   0.18368   0.18506
 Alpha virt. eigenvalues --    0.18628   0.18798   0.18973   0.19166   0.19636
 Alpha virt. eigenvalues --    0.19826   0.20063   0.20513   0.20662   0.20990
 Alpha virt. eigenvalues --    0.21029   0.21275   0.21418   0.21724   0.22258
 Alpha virt. eigenvalues --    0.22713   0.23138   0.23347   0.23459   0.23642
 Alpha virt. eigenvalues --    0.24175   0.24521   0.25058   0.25497   0.25840
 Alpha virt. eigenvalues --    0.25924   0.26129   0.26222   0.26378   0.26684
 Alpha virt. eigenvalues --    0.27108   0.27695   0.28033   0.28102   0.28886
 Alpha virt. eigenvalues --    0.29281   0.30025   0.31396   0.32005   0.34612
 Alpha virt. eigenvalues --    0.35029   0.35189   0.35468   0.35967   0.36083
 Alpha virt. eigenvalues --    0.36228   0.36774   0.37006   0.37592   0.37890
 Alpha virt. eigenvalues --    0.39707   0.46339   0.47172   0.48026   0.48124
 Alpha virt. eigenvalues --    0.48597   0.49000   0.49149   0.49443   0.50110
 Alpha virt. eigenvalues --    0.50958   0.51202   0.51870   0.52254   0.52580
 Alpha virt. eigenvalues --    0.53018   0.53179   0.53417   0.53829   0.54481
 Alpha virt. eigenvalues --    0.54635   0.54922   0.55030   0.55164   0.55356
 Alpha virt. eigenvalues --    0.55494   0.55740   0.56449   0.57152   0.57736
 Alpha virt. eigenvalues --    0.58637   0.59159   0.59467   0.60120   0.60323
 Alpha virt. eigenvalues --    0.60357   0.60809   0.61054   0.61381   0.61947
 Alpha virt. eigenvalues --    0.62198   0.62314   0.62809   0.63037   0.63513
 Alpha virt. eigenvalues --    0.63611   0.64072   0.64533   0.64757   0.64988
 Alpha virt. eigenvalues --    0.65119   0.65563   0.65922   0.66303   0.66546
 Alpha virt. eigenvalues --    0.67113   0.67556   0.68357   0.68858   0.69399
 Alpha virt. eigenvalues --    0.69764   0.70209   0.71251   0.71760   0.72937
 Alpha virt. eigenvalues --    0.73579   0.74666   0.74763   0.75626   0.76442
 Alpha virt. eigenvalues --    0.76515   0.76949   0.77286   0.77585   0.78351
 Alpha virt. eigenvalues --    0.79078   0.79367   0.79892   0.80409   0.80849
 Alpha virt. eigenvalues --    0.81010   0.81615   0.81845   0.82224   0.82682
 Alpha virt. eigenvalues --    0.82868   0.83045   0.83462   0.83878   0.84346
 Alpha virt. eigenvalues --    0.84435   0.84729   0.85047   0.85714   0.85953
 Alpha virt. eigenvalues --    0.86126   0.86552   0.86769   0.86933   0.87591
 Alpha virt. eigenvalues --    0.88322   0.88837   0.89255   0.89449   0.89669
 Alpha virt. eigenvalues --    0.90201   0.90590   0.90720   0.90881   0.91207
 Alpha virt. eigenvalues --    0.91539   0.91893   0.92101   0.92262   0.92863
 Alpha virt. eigenvalues --    0.93087   0.93580   0.93624   0.94210   0.94321
 Alpha virt. eigenvalues --    0.94459   0.94913   0.95232   0.95414   0.95881
 Alpha virt. eigenvalues --    0.95903   0.96416   0.96659   0.96800   0.97132
 Alpha virt. eigenvalues --    0.97494   0.97725   0.98003   0.98296   0.98588
 Alpha virt. eigenvalues --    0.98825   0.99085   0.99735   0.99852   1.00190
 Alpha virt. eigenvalues --    1.00483   1.00735   1.01527   1.01854   1.02736
 Alpha virt. eigenvalues --    1.03357   1.03651   1.04218   1.04968   1.05450
 Alpha virt. eigenvalues --    1.06305   1.06908   1.07338   1.08062   1.08557
 Alpha virt. eigenvalues --    1.09024   1.09926   1.12155   1.12831   1.13031
 Alpha virt. eigenvalues --    1.13650   1.14670   1.16619   1.17332   1.18626
 Alpha virt. eigenvalues --    1.19133   1.20261   1.20526   1.20842   1.21527
 Alpha virt. eigenvalues --    1.22868   1.24174   1.25806   1.26161   1.26518
 Alpha virt. eigenvalues --    1.27156   1.29191   1.30354   1.31017   1.33450
 Alpha virt. eigenvalues --    1.37834   1.37896   1.38219   1.39611   1.40496
 Alpha virt. eigenvalues --    1.42059   1.43271   1.43828   1.45287   1.45454
 Alpha virt. eigenvalues --    1.46537   1.46851   1.47195   1.47635   1.48233
 Alpha virt. eigenvalues --    1.49723   1.50279   1.50438   1.51069   1.51560
 Alpha virt. eigenvalues --    1.51879   1.52769   1.52961   1.53171   1.53615
 Alpha virt. eigenvalues --    1.53998   1.54839   1.56491   1.57169   1.58716
 Alpha virt. eigenvalues --    1.60196   1.60519   1.60867   1.63306   1.64457
 Alpha virt. eigenvalues --    1.66260   1.66655   1.67749   1.67977   1.68739
 Alpha virt. eigenvalues --    1.71147   1.71730   1.73578   1.74251   1.75652
 Alpha virt. eigenvalues --    1.77275   1.78031   1.78908   1.79971   1.80785
 Alpha virt. eigenvalues --    1.81604   1.82048   1.83448   1.84166   1.85074
 Alpha virt. eigenvalues --    1.85138   1.85378   1.85728   1.86651   1.86985
 Alpha virt. eigenvalues --    1.88403   1.88551   1.88762   1.89055   1.89243
 Alpha virt. eigenvalues --    1.89394   1.90067   1.90877   1.91107   1.91484
 Alpha virt. eigenvalues --    1.92422   1.93253   1.93705   1.94452   1.95004
 Alpha virt. eigenvalues --    1.95747   1.96913   1.98291   1.98815   1.99587
 Alpha virt. eigenvalues --    2.00115   2.00272   2.00967   2.01380   2.01893
 Alpha virt. eigenvalues --    2.02354   2.03147   2.03212   2.03733   2.04335
 Alpha virt. eigenvalues --    2.04510   2.05177   2.05679   2.06032   2.06624
 Alpha virt. eigenvalues --    2.07135   2.07632   2.07715   2.08310   2.10091
 Alpha virt. eigenvalues --    2.11697   2.12633   2.13660   2.14372   2.15282
 Alpha virt. eigenvalues --    2.15397   2.15912   2.16233   2.16967   2.17368
 Alpha virt. eigenvalues --    2.17741   2.18188   2.19239   2.19431   2.21768
 Alpha virt. eigenvalues --    2.22495   2.23007   2.23478   2.24772   2.26187
 Alpha virt. eigenvalues --    2.27217   2.27806   2.29141   2.29496   2.29884
 Alpha virt. eigenvalues --    2.30163   2.30550   2.30720   2.30996   2.31077
 Alpha virt. eigenvalues --    2.31584   2.31671   2.31988   2.33089   2.33247
 Alpha virt. eigenvalues --    2.33698   2.33951   2.34406   2.34721   2.35738
 Alpha virt. eigenvalues --    2.36672   2.37190   2.37836   2.38592   2.39418
 Alpha virt. eigenvalues --    2.40712   2.41184   2.42319   2.43701   2.44423
 Alpha virt. eigenvalues --    2.45783   2.48052   2.49360   2.51536   2.51939
 Alpha virt. eigenvalues --    2.53245   2.54305   2.55019   2.55286   2.55821
 Alpha virt. eigenvalues --    2.57663   2.60356   2.61019   2.61864   2.62570
 Alpha virt. eigenvalues --    2.63844   2.65218   2.65529   2.65894   2.66094
 Alpha virt. eigenvalues --    2.67669   2.68625   2.68770   2.69605   2.69956
 Alpha virt. eigenvalues --    2.76036   2.77010   2.77165   2.77541   2.78376
 Alpha virt. eigenvalues --    2.78788   2.79341   2.81404   2.84818   2.85849
 Alpha virt. eigenvalues --    2.86180   2.86503   2.87267   2.87766   2.88296
 Alpha virt. eigenvalues --    2.88816   2.89309   2.95670   2.96354   2.98664
 Alpha virt. eigenvalues --    3.11202   3.11617   3.12371   3.41808   3.42037
 Alpha virt. eigenvalues --    3.42783   4.08866   4.11549   4.12349   4.13483
 Alpha virt. eigenvalues --    4.14051   4.14574   4.15367   4.16369   4.17335
 Alpha virt. eigenvalues --    4.18554   4.19794   4.23695   4.24359   4.25643
 Alpha virt. eigenvalues --    4.26784   4.27681   4.28990   4.34029   4.35400
 Alpha virt. eigenvalues --    4.36250   4.36509   4.39544   4.40976   4.41700
 Alpha virt. eigenvalues --    4.43984   4.47782   4.48698   4.54595   4.60016
 Alpha virt. eigenvalues --    4.60156   4.60776   4.63064   4.65495   4.75007
 Alpha virt. eigenvalues --    4.75848   4.77278
          Condensed to atoms (all electrons):
 Mulliken charges:
               1
     1  C   -0.441979
     2  C   -0.179106
     3  H    0.138131
     4  H    0.149808
     5  C    0.188936
     6  H    0.124592
     7  C   -0.177388
     8  C   -0.184787
     9  H    0.122749
    10  C    0.185702
    11  H    0.122540
    12  C   -0.194173
    13  C   -0.195215
    14  H    0.118501
    15  H    0.116904
    16  C   -0.159634
    17  C   -0.444211
    18  H    0.147914
    19  H    0.139095
    20  H    0.142577
    21  C   -0.245062
    22  H    0.122048
    23  C   -0.454126
    24  H    0.133292
    25  H    0.127415
    26  H    0.165147
    27  H    0.140539
    28  H    0.134448
    29  H    0.144193
    30  C   -0.271828
    31  C   -0.158739
    32  H    0.138485
    33  H    0.131531
    34  C    0.180137
    35  H    0.133764
    36  C   -0.173283
    37  C   -0.199245
    38  H    0.123545
    39  C    0.184641
    40  H    0.118932
    41  C   -0.184732
    42  C   -0.189884
    43  H    0.121855
    44  H    0.118793
    45  C   -0.158588
    46  C   -0.447135
    47  H    0.147724
    48  H    0.137415
    49  H    0.147787
    50  C   -0.246040
    51  H    0.121417
    52  C   -0.457088
    53  H    0.127385
    54  H    0.130649
    55  H    0.142469
    56  H    0.136999
    57  H    0.163355
    58  C   -0.271195
    59  C   -0.358456
    60  H    0.140313
    61  H    0.128558
    62  C    0.193916
    63  H    0.141772
    64  C   -0.198705
    65  C   -0.184029
    66  H    0.116135
    67  C    0.183906
    68  H    0.120973
    69  C   -0.194234
    70  C   -0.175183
    71  H    0.122258
    72  H    0.122369
    73  C   -0.158324
    74  C   -0.452317
    75  H    0.155870
    76  H    0.138995
    77  H    0.140921
    78  C   -0.244179
    79  H    0.124329
    80  C   -0.446494
    81  H    0.130245
    82  H    0.128532
    83  H    0.156590
    84  H    0.139634
    85  H    0.137862
    86  H    0.150763
 Sum of Mulliken charges =  -0.00000
 Mulliken charges with hydrogens summed into heavy atoms:
               1
     1  C   -0.009848
     2  C   -0.054514
     5  C    0.188936
     7  C   -0.054639
     8  C   -0.062247
    10  C    0.185702
    12  C   -0.075671
    13  C   -0.078310
    16  C   -0.037586
    17  C   -0.014625
    21  C    0.015645
    23  C   -0.013992
    30  C   -0.001812
    31  C   -0.024975
    34  C    0.180137
    36  C   -0.049738
    37  C   -0.080313
    39  C    0.184641
    41  C   -0.062877
    42  C   -0.071091
    45  C   -0.037171
    46  C   -0.014210
    50  C    0.011995
    52  C   -0.014263
    58  C   -0.002324
    59  C   -0.065921
    62  C    0.193916
    64  C   -0.082569
    65  C   -0.063056
    67  C    0.183906
    69  C   -0.071975
    70  C   -0.052814
    73  C   -0.033995
    74  C   -0.016531
    78  C    0.014598
    80  C   -0.012407
 Electronic spatial extent (au):  <R**2>=          22386.1994
 Charge=              0.0000 electrons
 Dipole moment (field-independent basis, Debye):
    X=              0.0830    Y=              0.1928    Z=              0.0668  Tot=              0.2203
 Quadrupole moment (field-independent basis, Debye-Ang):
   XX=           -223.4309   YY=           -214.9858   ZZ=           -215.5141
   XY=             -0.9137   XZ=             -5.0250   YZ=              1.4860
 Traceless Quadrupole moment (field-independent basis, Debye-Ang):
   XX=             -5.4540   YY=              2.9912   ZZ=              2.4628
   XY=             -0.9137   XZ=             -5.0250   YZ=              1.4860
 Octapole moment (field-independent basis, Debye-Ang**2):
  XXX=            -11.0835  YYY=              6.0428  ZZZ=              2.9584  XYY=             -0.5756
  XXY=            -42.7016  XXZ=              7.3736  XZZ=              4.8192  YZZ=              3.5604
  YYZ=              5.5700  XYZ=            -13.0295
 Hexadecapole moment (field-independent basis, Debye-Ang**3):
 XXXX=         -21720.9534 YYYY=          -7540.3851 ZZZZ=          -1781.3579 XXXY=            -32.6158
 XXXZ=           -217.6593 YYYX=            -17.3573 YYYZ=             29.5492 ZZZX=            -18.5075
 ZZZY=              0.7105 XXYY=          -4926.5021 XXZZ=          -3884.9885 YYZZ=          -1558.1722
 XXYZ=             16.7126 YYXZ=            -28.6262 ZZXY=              7.1487
 N-N= 3.927504195685D+03 E-N=-1.109721296728D+04  KE= 1.387974547408D+03
 Calling FoFJK, ICntrl=      2127 FMM=T ISym2X=0 I1Cent= 0 IOpClX= 0 NMat=1 NMatS=1 NMatT=0.
 ***** Axes restored to original set *****
 -------------------------------------------------------------------
 Center     Atomic                   Forces (Hartrees/Bohr)
 Number     Number              X              Y              Z
 -------------------------------------------------------------------
      1        6          -0.000000423   -0.000000341    0.000000910
      2        6          -0.000000094   -0.000000838   -0.000004037
      3        1          -0.000000293   -0.000000326   -0.000000019
      4        1           0.000000333   -0.000000043   -0.000000372
      5        6          -0.000000976    0.000003709   -0.000001251
      6        1           0.000000079   -0.000000115    0.000000609
      7        6           0.000000191   -0.000002707   -0.000000807
      8        6           0.000001627    0.000000709    0.000001519
      9        1           0.000000102    0.000000399    0.000000346
     10        6          -0.000002267    0.000001578   -0.000000808
     11        1          -0.000000095   -0.000000024   -0.000000116
     12        6           0.000000499   -0.000001544   -0.000000547
     13        6           0.000001117   -0.000000219    0.000001041
     14        1          -0.000000036    0.000000129    0.000000072
     15        1          -0.000000043   -0.000000009    0.000000124
     16        6           0.000000234   -0.000000308    0.000000964
     17        6           0.000000419   -0.000000195   -0.000000618
     18        1           0.000000118    0.000000030    0.000000027
     19        1          -0.000000008    0.000000198    0.000000110
     20        1          -0.000000083    0.000000111   -0.000000065
     21        6          -0.000000162    0.000000052   -0.000000437
     22        1          -0.000000006    0.000000048    0.000000223
     23        6          -0.000000430    0.000000055    0.000000007
     24        1          -0.000000383   -0.000000236    0.000000061
     25        1          -0.000000192    0.000000037   -0.000000125
     26        1           0.000000129    0.000000428    0.000000070
     27        1           0.000000426    0.000000369   -0.000000036
     28        1           0.000000259   -0.000000206   -0.000000076
     29        1           0.000000082    0.000000190   -0.000000288
     30        6          -0.000001275   -0.000000600    0.000004157
     31        6           0.000000627    0.000001189   -0.000001709
     32        1           0.000000162    0.000000439   -0.000000002
     33        1           0.000000634    0.000000134   -0.000000398
     34        6           0.000001355   -0.000000505    0.000000430
     35        1          -0.000000085    0.000000044    0.000000047
     36        6           0.000000704   -0.000001733    0.000000912
     37        6          -0.000001407    0.000001325   -0.000000672
     38        1          -0.000000425    0.000000216   -0.000000081
     39        6           0.000001972    0.000000573   -0.000000522
     40        1           0.000000242   -0.000000350    0.000000092
     41        6          -0.000000513   -0.000000879    0.000000108
     42        6           0.000000145    0.000000771   -0.000000056
     43        1           0.000000156    0.000000329   -0.000000171
     44        1          -0.000000164    0.000000016    0.000000198
     45        6          -0.000002207   -0.000000212    0.000001314
     46        6          -0.000000194   -0.000000378   -0.000000583
     47        1           0.000000562   -0.000000287   -0.000000029
     48        1           0.000000026    0.000000232    0.000000225
     49        1          -0.000000077    0.000000147    0.000000143
     50        6          -0.000000162    0.000000037   -0.000000290
     51        1           0.000000520   -0.000000263   -0.000000243
     52        6           0.000000293   -0.000000410   -0.000000015
     53        1          -0.000000087    0.000000091    0.000000131
     54        1           0.000000237   -0.000000051    0.000000087
     55        1          -0.000000249   -0.000000120    0.000000125
     56        1          -0.000000018    0.000000300    0.000000058
     57        1          -0.000000119   -0.000000038   -0.000000178
     58        6          -0.000000403    0.000000511    0.000001362
     59        6           0.000001447   -0.000000262    0.000000291
[...]
 ! D132  D(39,41,42,34)         -0.0225         -DE/DX =    0.0                 !
 ! D133  D(39,41,42,44)        179.4642         -DE/DX =    0.0                 !
 ! D134  D(43,41,42,34)       -179.6735         -DE/DX =    0.0                 !
 ! D135  D(43,41,42,44)         -0.1869         -DE/DX =    0.0                 !
 ! D136  D(39,45,46,47)        -64.2853         -DE/DX =    0.0                 !
 ! D137  D(39,45,46,48)        175.869          -DE/DX =    0.0                 !
 ! D138  D(39,45,46,49)         55.5216         -DE/DX =    0.0                 !
 ! D139  D(50,45,46,47)         62.0827         -DE/DX =    0.0                 !
 ! D140  D(50,45,46,48)        -57.7629         -DE/DX =    0.0                 !
 ! D141  D(50,45,46,49)       -178.1104         -DE/DX =    0.0                 !
 ! D142  D(51,45,46,47)        178.7549         -DE/DX =    0.0                 !
 ! D143  D(51,45,46,48)         58.9092         -DE/DX =    0.0                 !
 ! D144  D(51,45,46,49)        -61.4382         -DE/DX =    0.0                 !
 ! D145  D(39,45,50,52)        -62.3938         -DE/DX =    0.0                 !
 ! D146  D(39,45,50,53)        175.5859         -DE/DX =    0.0                 !
 ! D147  D(39,45,50,54)         60.6858         -DE/DX =    0.0                 !
 ! D148  D(46,45,50,52)        172.063          -DE/DX =    0.0                 !
 ! D149  D(46,45,50,53)         50.0426         -DE/DX =    0.0                 !
 ! D150  D(46,45,50,54)        -64.8575         -DE/DX =    0.0                 !
 ! D151  D(51,45,50,52)         55.2469         -DE/DX =    0.0                 !
 ! D152  D(51,45,50,53)        -66.7735         -DE/DX =    0.0                 !
 ! D153  D(51,45,50,54)        178.3264         -DE/DX =    0.0                 !
 ! D154  D(45,50,52,55)        -60.8279         -DE/DX =    0.0                 !
 ! D155  D(45,50,52,56)        179.5688         -DE/DX =    0.0                 !
 ! D156  D(45,50,52,57)         59.0152         -DE/DX =    0.0                 !
 ! D157  D(53,50,52,55)         60.5668         -DE/DX =    0.0                 !
 ! D158  D(53,50,52,56)        -59.0366         -DE/DX =    0.0                 !
 ! D159  D(53,50,52,57)       -179.5902         -DE/DX =    0.0                 !
 ! D160  D(54,50,52,55)        176.3174         -DE/DX =    0.0                 !
 ! D161  D(54,50,52,56)         56.7141         -DE/DX =    0.0                 !
 ! D162  D(54,50,52,57)        -63.8395         -DE/DX =    0.0                 !
 ! D163  D(31,58,59,62)        -77.1073         -DE/DX =    0.0                 !
 ! D164  D(31,58,59,63)         48.498          -DE/DX =    0.0                 !
 ! D165  D(31,58,59,86)        161.5715         -DE/DX =    0.0                 !
 ! D166  D(60,58,59,62)         48.6993         -DE/DX =    0.0                 !
 ! D167  D(60,58,59,63)        174.3045         -DE/DX =    0.0                 !
 ! D168  D(60,58,59,86)        -72.622          -DE/DX =    0.0                 !
 ! D169  D(61,58,59,62)        162.6527         -DE/DX =    0.0                 !
 ! D170  D(61,58,59,63)        -71.742          -DE/DX =    0.0                 !
 ! D171  D(61,58,59,86)         41.3315         -DE/DX =    0.0                 !
 ! D172  D(58,59,62,64)        133.8783         -DE/DX =    0.0                 !
 ! D173  D(58,59,62,70)        -50.1719         -DE/DX =    0.0                 !
 ! D174  D(63,59,62,64)          7.8869         -DE/DX =    0.0                 !
 ! D175  D(63,59,62,70)       -176.1633         -DE/DX =    0.0                 !
 ! D176  D(86,59,62,64)       -105.4757         -DE/DX =    0.0                 !
 ! D177  D(86,59,62,70)         70.4741         -DE/DX =    0.0                 !
 ! D178  D(59,62,64,65)        176.6433         -DE/DX =    0.0                 !
 ! D179  D(59,62,64,66)         -3.1934         -DE/DX =    0.0                 !
 ! D180  D(70,62,64,65)          0.5095         -DE/DX =    0.0                 !
 ! D181  D(70,62,64,66)       -179.3272         -DE/DX =    0.0                 !
 ! D182  D(59,62,70,69)       -176.703          -DE/DX =    0.0                 !
 ! D183  D(59,62,70,72)          3.2708         -DE/DX =    0.0                 !
 ! D184  D(64,62,70,69)         -0.6381         -DE/DX =    0.0                 !
 ! D185  D(64,62,70,72)        179.3357         -DE/DX =    0.0                 !
 ! D186  D(62,64,65,67)         -0.0731         -DE/DX =    0.0                 !
 ! D187  D(62,64,65,68)        179.9004         -DE/DX =    0.0                 !
 ! D188  D(66,64,65,67)        179.7636         -DE/DX =    0.0                 !
 ! D189  D(66,64,65,68)         -0.2629         -DE/DX =    0.0                 !
 ! D190  D(64,65,67,69)         -0.2427         -DE/DX =    0.0                 !
 ! D191  D(64,65,67,73)        179.655          -DE/DX =    0.0                 !
 ! D192  D(68,65,67,69)        179.784          -DE/DX =    0.0                 !
 ! D193  D(68,65,67,73)         -0.3183         -DE/DX =    0.0                 !
 ! D194  D(65,67,69,70)          0.1123         -DE/DX =    0.0                 !
 ! D195  D(65,67,69,71)       -179.6591         -DE/DX =    0.0                 !
 ! D196  D(73,67,69,70)       -179.7859         -DE/DX =    0.0                 !
 ! D197  D(73,67,69,71)          0.4427         -DE/DX =    0.0                 !
 ! D198  D(65,67,73,74)        -61.3594         -DE/DX =    0.0                 !
 ! D199  D(65,67,73,78)         63.8453         -DE/DX =    0.0                 !
 ! D200  D(65,67,73,79)       -178.6087         -DE/DX =    0.0                 !
 ! D201  D(69,67,73,74)        118.5345         -DE/DX =    0.0                 !
 ! D202  D(69,67,73,78)       -116.2609         -DE/DX =    0.0                 !
 ! D203  D(69,67,73,79)          1.2852         -DE/DX =    0.0                 !
 ! D204  D(67,69,70,62)          0.3385         -DE/DX =    0.0                 !
 ! D205  D(67,69,70,72)       -179.6356         -DE/DX =    0.0                 !
 ! D206  D(71,69,70,62)       -179.8902         -DE/DX =    0.0                 !
 ! D207  D(71,69,70,72)          0.1357         -DE/DX =    0.0                 !
 ! D208  D(67,73,74,75)        -55.2317         -DE/DX =    0.0                 !
 ! D209  D(67,73,74,76)       -175.5507         -DE/DX =    0.0                 !
 ! D210  D(67,73,74,77)         64.7568         -DE/DX =    0.0                 !
 ! D211  D(78,73,74,75)        178.5083         -DE/DX =    0.0                 !
 ! D212  D(78,73,74,76)         58.1892         -DE/DX =    0.0                 !
 ! D213  D(78,73,74,77)        -61.5033         -DE/DX =    0.0                 !
 ! D214  D(79,73,74,75)         61.8455         -DE/DX =    0.0                 !
 ! D215  D(79,73,74,76)        -58.4736         -DE/DX =    0.0                 !
 ! D216  D(79,73,74,77)       -178.1661         -DE/DX =    0.0                 !
 ! D217  D(67,73,78,80)         61.6535         -DE/DX =    0.0                 !
 ! D218  D(67,73,78,81)        -61.3985         -DE/DX =    0.0                 !
 ! D219  D(67,73,78,82)       -176.3173         -DE/DX =    0.0                 !
 ! D220  D(74,73,78,80)       -172.6927         -DE/DX =    0.0                 !
 ! D221  D(74,73,78,81)         64.2553         -DE/DX =    0.0                 !
 ! D222  D(74,73,78,82)        -50.6636         -DE/DX =    0.0                 !
 ! D223  D(79,73,78,80)        -55.8739         -DE/DX =    0.0                 !
 ! D224  D(79,73,78,81)       -178.9259         -DE/DX =    0.0                 !
 ! D225  D(79,73,78,82)         66.1553         -DE/DX =    0.0                 !
 ! D226  D(73,78,80,83)        -60.7037         -DE/DX =    0.0                 !
 ! D227  D(73,78,80,84)        179.0038         -DE/DX =    0.0                 !
 ! D228  D(73,78,80,85)         59.2589         -DE/DX =    0.0                 !
 ! D229  D(81,78,80,83)         62.0957         -DE/DX =    0.0                 !
 ! D230  D(81,78,80,84)        -58.1969         -DE/DX =    0.0                 !
 ! D231  D(81,78,80,85)       -177.9417         -DE/DX =    0.0                 !
 ! D232  D(82,78,80,83)        177.9267         -DE/DX =    0.0                 !
 ! D233  D(82,78,80,84)         57.6342         -DE/DX =    0.0                 !
 ! D234  D(82,78,80,85)        -62.1107         -DE/DX =    0.0                 !
 --------------------------------------------------------------------------------
 GradGradGradGradGradGradGradGradGradGradGradGradGradGradGradGradGradGrad

 Stoichiometry    C36H50
 Framework group  C1[X(C36H50)]
 Deg. of freedom   252
 Full point group                 C1      NOp   1
 Largest Abelian subgroup         C1      NOp   1
 Largest concise Abelian subgroup C1      NOp   1
                         Standard orientation:                         
 ---------------------------------------------------------------------
 Center     Atomic      Atomic             Coordinates (Angstroms)
 Number     Number       Type             X           Y           Z
 ---------------------------------------------------------------------
      1          6           0       -2.847420    4.405643   -1.276958
      2          6           0       -2.488432    3.422997   -0.144277
      3          1           0       -2.243311    5.318838   -1.210023
      4          1           0       -3.904031    4.690258   -1.229748
      5          6           0       -3.396323    2.201115   -0.179137
      6          1           0       -2.684139    3.937491    0.807998
      7          6           0       -3.342349    1.264927   -1.222890
      8          6           0       -4.215142    0.180842   -1.265718
      9          1           0       -2.604519    1.378253   -2.013345
     10          6           0       -5.184103   -0.016206   -0.269102
     11          1           0       -4.138154   -0.523698   -2.090637
     12          6           0       -5.234647    0.915382    0.772650
     13          6           0       -4.358331    2.001782    0.816547
     14          1           0       -5.972624    0.792555    1.562883
     15          1           0       -4.430082    2.711401    1.638720
     16          6           0       -6.152571   -1.190673   -0.317765
     17          6           0       -7.035282   -1.144679   -1.579809
     18          1           0       -7.569927   -0.191450   -1.654022
     19          1           0       -7.776712   -1.952594   -1.564156
     20          1           0       -6.436123   -1.261541   -2.490686
     21          6           0       -5.440510   -2.557548   -0.195103
     22          1           0       -6.818655   -1.095318    0.552291
     23          6           0       -4.679471   -2.752624    1.119499
     24          1           0       -4.750617   -2.683368   -1.041256
     25          1           0       -6.197634   -3.347248   -0.299640
     26          1           0       -3.871950   -2.020600    1.225380
     27          1           0       -4.235118   -3.753421    1.168894
     28          1           0       -5.347811   -2.643184    1.983173
     29          1           0       -2.668337    3.956480   -2.261179
     30          6           0       -0.974902    3.101694   -0.171971
     31          6           0       -0.482439    2.205824    0.998525
     32          1           0       -0.715015    2.657782   -1.139910
     33          1           0       -0.451667    4.066215   -0.141288
     34          6           0       -0.284283    0.734032    0.643380
     35          1           0       -1.279901    2.214691    1.754407
     36          6           0        0.341600    0.296501   -0.529433
     37          6           0        0.533028   -1.062384   -0.783856
     38          1           0        0.708104    1.017169   -1.254015
     39          6           0        0.104359   -2.044400    0.116091
     40          1           0        1.032012   -1.363718   -1.702722
     41          6           0       -0.529184   -1.608499    1.288985
     42          6           0       -0.717409   -0.251433    1.542992
     43          1           0       -0.887521   -2.335038    2.014788
     44          1           0       -1.220852    0.051106    2.459264
     45          6           0        0.303126   -3.524918   -0.182955
     46          6           0       -1.045133   -4.239180   -0.400181
     47          1           0       -1.651052   -4.228351    0.513553
     48          1           0       -0.889687   -5.286547   -0.686530
     49          1           0       -1.627585   -3.751318   -1.189369
     50          6           0        1.137295   -4.248231    0.898865
     51          1           0        0.866182   -3.591978   -1.125443
     52          6           0        2.567945   -3.721344    1.043561
     53          1           0        1.166519   -5.318620    0.651737
     54          1           0        0.617916   -4.175315    1.864470
     55          1           0        3.128554   -3.843959    0.108088
     56          1           0        3.109986   -4.263213    1.827358
     57          1           0        2.578480   -2.656056    1.297628
     58          6           0        0.735925    2.829084    1.746504
     59          6           0        2.004675    3.214038    0.952474
     60          1           0        1.009089    2.162954    2.574519
     61          1           0        0.369215    3.753482    2.214725
     62          6           0        2.958485    2.111772    0.527572
     63          1           0        1.721067    3.795821    0.066754
     64          6           0        3.461040    2.073907   -0.779827
     65          6           0        4.390971    1.113521   -1.175585
     66          1           0        3.119334    2.813078   -1.502228
     67          6           0        4.860903    0.146906   -0.276028
     68          1           0        4.752715    1.120834   -2.201378
     69          6           0        4.362966    0.189590    1.032904
     70          6           0        3.434591    1.152286    1.429249
     71          1           0        4.711663   -0.543267    1.757739
     72          1           0        3.079810    1.151445    2.457109
     73          6           0        5.870897   -0.911980   -0.698945
     74          6           0        5.314233   -1.808297   -1.821640
     75          1           0        4.361899   -2.262257   -1.527231
     76          1           0        6.019102   -2.613560   -2.061313
     77          1           0        5.140164   -1.235225   -2.740295
     78          6           0        7.233088   -0.305004   -1.108290
     79          1           0        6.051726   -1.554128    0.175267
     80          6           0        7.944269    0.457692    0.013309
     81          1           0        7.086294    0.360220   -1.970760
     82          1           0        7.879496   -1.120799   -1.460837
     83          1           0        7.342797    1.302737    0.364911
     84          1           0        8.909311    0.849488   -0.327911
     85          1           0        8.136296   -0.194460    0.874644
     86          1           0        2.566514    3.915122    1.587799
 ---------------------------------------------------------------------
 Rotational constants (GHZ):           0.1638066           0.0617552           0.0494159
 1\1\GINC-NID00398\FOpt\RB3LYP\6-31G(d)\C36H50\NMARIONI\04-Feb-2021\0\\
 #n B3LYP/6-31G(d) Opt geom=check guess=read\\dvb_iso\\0,1\C,0.57584256
 11,-0.3389737504,-0.2609202102\C,-0.5135171433,-0.8955107268,0.6776939
 368\H,0.9722542212,0.6110049425,0.1182239673\H,0.1771731324,-0.1663318
 647,-1.2663648713\C,-1.1322876528,-2.1607998489,0.0992094671\H,-1.3151
 446584,-0.1440852549,0.7285527521\C,-0.4050661275,-3.3544943604,-0.023
 3671728\C,-0.9704792854,-4.4877359316,-0.602082242\H,0.6173271971,-3.4
 049014892,0.343001959\C,-2.2877030296,-4.4796460581,-1.0876881693\H,-0
 .3736982429,-5.3939885604,-0.6752463833\C,-3.0128532939,-3.2905507227,
 -0.961722132\C,-2.4464338676,-2.1544219866,-0.3799131412\H,-4.03733117
 96,-3.2492376586,-1.3262802133\H,-3.0374956094,-1.2436182994,-0.304040
 8695\C,-2.907431779,-5.7104602755,-1.7363065328\C,-2.1324573699,-6.136
 2942966,-2.998102723\H,-2.0579915984,-5.3105309238,-3.7140417348\H,-2.
 6324303923,-6.9762526727,-3.4952808542\H,-1.1128067217,-6.45560791,-2.
 7517322121\C,-3.0504769162,-6.8954690274,-0.7535975865\H,-3.9227706243
 ,-5.4307809638,-2.0535170038\C,-3.9556408546,-6.6082206836,0.447892925
 4\H,-2.0538962702,-7.1944095322,-0.3997345278\H,-3.4460110492,-7.75564
 60552,-1.3116652844\H,-3.5545920397,-5.7970419678,1.0645850884\H,-4.05
 5431853,-7.4960331654,1.0829630649\H,-4.9629360463,-6.3173204507,0.123
 3606834\H,1.4143896536,-1.039702495,-0.3521758614\C,0.0423870913,-1.04
 89463461,2.1137307938\C,-1.0066818047,-1.4978093199,3.1687858773\H,0.9
 00121597,-1.7313163194,2.1006848213\H,0.4505092958,-0.0696181586,2.395
 4547638\C,-0.9569573761,-2.9790404537,3.5362727433\H,-1.9937630804,-1.
 348082109,2.7098358839\C,0.2304211334,-3.67785425,3.7821295629\C,0.214
 6385527,-5.022647547,4.1552573879\H,1.1877263443,-3.1716228001,3.70464
 73749\C,-0.9840565685,-5.7310647272,4.2941549408\H,1.1580690288,-5.529
 9082842,4.3468993082\C,-2.1749575758,-5.0345820957,4.0417017256\C,-2.1
 5794799,-3.6913001511,3.6717280987\H,-3.1314447898,-5.5451566638,4.128
 3007931\H,-3.1005862856,-3.1841391666,3.4748499531\C,-0.9858220921,-7.
 2037797281,4.683998076\C,-1.5007789939,-8.0883441668,3.5318151998\H,-2
 .5504712297,-7.8694796678,3.3028858101\H,-1.4298297281,-9.1509322505,3
 .7945136724\H,-0.9209855541,-7.9223160469,2.6172920371\C,-1.7790402578
 ,-7.4793524582,5.9817732479\H,0.0590112437,-7.4890836188,4.8756689608\
 C,-1.2106485511,-6.7854824921,7.2230548071\H,-1.7988018354,-8.56539514
 43,6.1484407076\H,-2.8254783584,-7.1769924158,5.8368237496\H,-0.186005
 5922,-7.1216539491,7.4268225679\H,-1.8144935202,-7.0086136232,8.110383
 8229\H,-1.1822943955,-5.6980154881,7.0961245917\C,-1.0352224028,-0.554
 9914068,4.410807061\C,0.2666379074,-0.2927896623,5.201257005\H,-1.8150
 52946,-0.9111746314,5.0956081559\H,-1.3807048973,0.4228987513,4.046675
 8736\C,0.7674150637,-1.3645768132,6.1529828129\H,1.0736701434,-0.03493
 29819,4.5043968292\C,2.1180807172,-1.7373895267,6.1536518581\C,2.61666
 00679,-2.668408182,7.0637945328\H,2.793974669,-1.287648519,5.428461734
 \C,1.7820189747,-3.2675593804,8.0170913064\H,3.672011148,-2.9292339684
 ,7.0267999293\C,0.4329731334,-2.8892302727,8.020142827\C,-0.0649627394
 ,-1.9556807409,7.1111331457\H,-0.2407986312,-3.3315186055,8.7512167001
 \H,-1.1178402537,-1.6873657344,7.1538218067\C,2.3136995551,-4.29167537
 62,9.0114183621\C,2.8754695508,-5.535490509,8.2965467306\H,2.12684597,
 -5.9787813258,7.6311495268\H,3.1818801299,-6.2965404167,9.0243158371\H
 ,3.7535357285,-5.2841665778,7.6895245863\C,3.3641757508,-3.6942767994,
 9.9763852197\H,1.4615537421,-4.6210698343,9.6235017547\C,2.8340420894,
 -2.5612515763,10.8599462121\H,4.2249581372,-3.3359008582,9.3945374244\
 H,3.7446825528,-4.5051445908,10.6130663581\H,2.479222851,-1.7181782526
 ,10.2575981704\H,3.6146833931,-2.1895536673,11.5335048923\H,1.99544971
 76,-2.902795383,11.4797732654\H,0.0929990094,0.6210182744,5.7891546838
 \\Version=ES64L-G16RevA.03\State=1-A\HF=-1401.9920141\RMSD=3.864e-09\R
 MSF=7.384e-07\Dipole=0.0075268,0.0832322,0.0229093\Quadrupole=2.974486
 9,2.3732781,-5.347765,-1.385406,0.5270367,-2.0671455\PG=C01 [X(C36H50)
 ]\\@


 YOU SHOULDN'T LET PEOPLE DRIVE YOU CRAZY
 WHEN YOU KNOW IT'S WITHIN WALKING DISTANCE.
 Job cpu time:       0 days  0 hours 11 minutes 28.9 seconds.
 Elapsed time:       0 days  0 hours  0 minutes 29.2 seconds.
 File lengths (MBytes):  RWF=    218 Int=      0 D2E=      0 Chk=     35 Scr=      1
 Normal termination of Gaussian 16 at Thu Feb  4 10:45:22 2021.
